<?xml version="1.0"?>
<VTKFile type="UnstructuredGrid"  version="0.1"  >
<UnstructuredGrid>
<Piece  NumberOfPoints="104" NumberOfCells="173">
<Points>
<DataArray  type="Float64"  NumberOfComponents="3"  format="ascii">1 1 0  1 0 0  0 1 0  0.1 0 0  0 0.05 0  0 0.07733101844239042 0  0 0.1117387278466138 0  0 0.1550554692909517 0  0 0.209588015282027 0  0 0.278240422763806 0  0 0.3646686933456457 0  0 0.4734754196373397 0  0 0.6104549859004286 0  0 0.7829020288664955 0  0.2499999999994121 1 0  0.499999999998694 1 0  0.7499999999993416 1 0  1 0.7500000000003465 0  1 0.5000000000020591 0  1 0.2500000000010404 0  0.7943282376672256 0 0  0.6309573552735894 0 0  0.5011872396926083 0 0  0.3981071830939058 0 0  0.3162277690795368 0 0  0.2511886461062637 0 0  0.1995262340521877 0 0  0.1584893212009244 0 0  0.1258925438205232 0 0  0.02177294498927405 0.04402886651664575 0  0.04285725397921011 0.03595622859598258 0  0.06305063048901315 0.02585954034109658 0  0.08215932621961379 0.01383567590150353 0  0.1397122885342415 0.1356333515513305 0  0.4722450073198077 0.4608348399571406 0  0.3571674760867213 0.2338224376404947 0  0.1861262329484141 0.316681049070636 0  0.05454401732054113 0.09593626955285633 0  0.1954512467441817 0.5561053206636606 0  0.6127796230919387 0.2559208459658219 0  0.1032327708328754 0.0642031617188282 0  0.2288037865586321 0.09039746270343392 0  0.08326090421014 0.1597408220858358 0  0.2403728875399526 0.2132871585000633 0  0.3511119485603887 0.1238448895085886 0  0.5079649120033621 0.1646256266313963 0  0.410424834275324 0.738816817230217 0  0.6857883505057389 0.6476196671709792 0  0.1449512993177772 0.048564595308609 0  0.1045257130841647 0.2730282428213504 0  0.09914353802156954 0.4286521090406524 0  0.3467531894281312 0.4167370577401396 0  0.0625331324057158 0.05916924489723869 0  0.111955578625803 0.02648018128599717 0  0.2038673407671664 0.7483370209557235 0  0.6651172740889409 0.481548243269969 0  0.03823920778434605 0.1334661660272216 0  0.14511718450631 0.201333760721991 0  0.2837082075929003 0.05771620837740407 0  0.03304024903544399 0.07562380924405546 0  0.7744758243885572 0.2159732873111841 0  0.1935948576711507 0.05114605506696602 0  0.08491733586048343 0.03891523837867714 0  0.480938258835533 0.2915478240052113 0  0.1023392038419342 0.1086144505837048 0  0.1340434002822973 0.09024557021014037 0  0.2792258975873632 0.2978475645071705 0  0.08193231696868186 0.5457331345607792 0  0.428962737438045 0.08728625858494519 0  0.2225831932111813 0.4197317568827227 0  0.6169975767651166 0.127614448269229 0  0.06115842862957335 0.2173755009935833 0  0.3398647711903632 0.5662856997717287 0  0.5273025087372964 0.6213348762459076 0  0.2776586961748795 0.1449065091550423 0  0.6062886817483224 0.8024482080341051 0  0.2019410470331123 0.1466284224200151 0  0.05530408628450678 0.3214545580547258 0  0.853268874084281 0.3823007038177441 0  0.1232679675514865 0.8914510144332477 0  0.3556235691529553 0.05376947129418759 0  0.03582172579681576 0.1771242083217997 0  0.2385753366247686 0.04462911485837599 0  0.1777437108774462 0.09405083087821473 0  0.1082094315712252 0.6558702065951977 0  0.02816760984531876 0.1031103950622475 0  0.4252290665848101 0.1802254072741272 0  0.8100967941222409 0.7904809896024618 0  0.01621923105713282 0.06263501041016763 0  0.03825586500182964 0.05550878116428495 0  0.8357118821335335 0.5919916006439266 0  0.07177566537074967 0.1262234366719055 0  0.5919115889621529 0.3635228074071893 0  0.1690092861434257 0.02711523729571447 0  0.1421909325107238 0.01879501691337866 0  0.7341726722669881 0.0836155447330212 0  0.8785065821147054 0.1024682715258724 0  0.1335365527099673 0.3519095431740175 0  0.3085560405007924 0.8629781462043499 0  0.07941133553816863 0.08808497420280852 0  0.1862481204200952 0.2515932697484821 0  0.3884495299292033 0.3349580750628135 0  0.5407883861868507 0.08041815644845306 0  0.7077869639378512 0.3363986364925023 0  </DataArray>
</Points>
<Cells>
<DataArray  type="UInt32"  Name="connectivity"  format="ascii">51 69 72  38 69 72  9 49 71  38 54 72  3 28 53  30 31 52  3 32 53  42 64 91  33 42 64  35 43 74  10 11 50  10 50 77  35 44 74  33 42 57  42 57 71  52 59 89  34 51 72  34 55 73  48 65 83  5 59 85  48 61 83  9 49 77  8 9 71  40 48 53  46 54 72  38 54 84  22 23 68  36 69 97  47 87 90  34 55 92  5 6 85  39 60 70  33 57 76  17 87 90  6 7 56  41 58 74  15 46 98  30 52 89  38 50 69  15 46 75  24 25 58  26 61 82  25 26 82  28 53 94  37 52 59  36 66 69  48 61 93  35 43 66  60 70 95  38 50 67  34 63 101  43 57 76  50 69 97  31 52 62  35 63 86  32 53 62  13 54 84  47 55 73  40 48 65  15 16 75  12 13 84  5 59 88  34 51 101  17 18 90  49 57 71  11 50 67  44 58 74  45 63 86  31 32 62  26 27 93  11 12 67  1 19 96  50 77 97  39 45 63  16 75 87  26 61 93  35 44 86  21 22 102  6 56 85  51 66 69  13 54 79  2 14 79  22 68 102  7 56 81  39 45 70  9 10 77  34 63 92  0 17 87  0 16 87  25 58 82  40 64 99  23 24 80  24 58 80  36 49 100  7 8 81  43 57 100  2 13 79  40 64 65  20 21 95  37 91 99  1 20 96  49 57 100  43 66 100  37 56 85  39 60 103  4 5 88  44 58 80  41 74 76  20 95 96  36 49 97  47 75 87  38 67 84  42 56 81  14 15 98  27 28 94  33 76 83  23 68 80  18 19 78  34 72 73  35 63 101  42 56 91  48 53 94  44 68 80  36 66 100  8 71 81  40 52 62  46 54 98  40 53 62  41 58 82  60 95 96  41 76 83  4 29 88  19 60 78  47 55 90  29 30 89  37 56 91  12 67 84  64 91 99  42 71 81  21 70 102  37 59 85  37 52 99  47 73 75  35 66 101  33 65 83  29 88 89  39 92 103  44 68 86  46 73 75  46 72 73  45 68 102  33 64 65  54 79 98  45 70 102  39 63 92  51 66 101  43 74 76  19 60 96  41 61 82  55 78 90  41 61 83  55 78 103  60 78 103  21 70 95  40 52 99  55 92 103  27 93 94  18 78 90  45 68 86  59 88 89  49 77 97  14 79 98  48 93 94  </DataArray>
<DataArray  type="UInt32"  Name="offsets"  format="ascii">3 6 9 12 15 18 21 24 27 30 33 36 39 42 45 48 51 54 57 60 63 66 69 72 75 78 81 84 87 90 93 96 99 102 105 108 111 114 117 120 123 126 129 132 135 138 141 144 147 150 153 156 159 162 165 168 171 174 177 180 183 186 189 192 195 198 201 204 207 210 213 216 219 222 225 228 231 234 237 240 243 246 249 252 255 258 261 264 267 270 273 276 279 282 285 288 291 294 297 300 303 306 309 312 315 318 321 324 327 330 333 336 339 342 345 348 351 354 357 360 363 366 369 372 375 378 381 384 387 390 393 396 399 402 405 408 411 414 417 420 423 426 429 432 435 438 441 444 447 450 453 456 459 462 465 468 471 474 477 480 483 486 489 492 495 498 501 504 507 510 513 516 519 </DataArray>
<DataArray  type="UInt8"  Name="types"  format="ascii">5 5 5 5 5 5 5 5 5 5 5 5 5 5 5 5 5 5 5 5 5 5 5 5 5 5 5 5 5 5 5 5 5 5 5 5 5 5 5 5 5 5 5 5 5 5 5 5 5 5 5 5 5 5 5 5 5 5 5 5 5 5 5 5 5 5 5 5 5 5 5 5 5 5 5 5 5 5 5 5 5 5 5 5 5 5 5 5 5 5 5 5 5 5 5 5 5 5 5 5 5 5 5 5 5 5 5 5 5 5 5 5 5 5 5 5 5 5 5 5 5 5 5 5 5 5 5 5 5 5 5 5 5 5 5 5 5 5 5 5 5 5 5 5 5 5 5 5 5 5 5 5 5 5 5 5 5 5 5 5 5 5 5 5 5 5 5 5 5 5 5 5 5 </DataArray>
</Cells>
<PointData  Scalars="f_1877"> 
<DataArray  type="Float64"  Name="f_1877"  format="ascii">1.3495370950471226e+02  0.0000000000000000e+00  0.0000000000000000e+00  0.0000000000000000e+00  0.0000000000000000e+00  0.0000000000000000e+00  0.0000000000000000e+00  0.0000000000000000e+00  0.0000000000000000e+00  0.0000000000000000e+00  0.0000000000000000e+00  0.0000000000000000e+00  0.0000000000000000e+00  0.0000000000000000e+00  5.2234419095606533e+01  8.3268644349779876e+01  1.0985563205538340e+02  1.0991056154085258e+02  8.3602827718917652e+01  5.1896532747403434e+01  0.0000000000000000e+00  0.0000000000000000e+00  0.0000000000000000e+00  0.0000000000000000e+00  0.0000000000000000e+00  0.0000000000000000e+00  0.0000000000000000e+00  0.0000000000000000e+00  0.0000000000000000e+00  3.8916628817287918e-01  6.2292020982962770e-01  6.8677706206589417e-01  5.1176242316152376e-01  3.1774734247134115e+00  3.5510509225872603e+01  1.3772408015013815e+01  9.6784118026908779e+00  9.6058587373979787e-01  1.8097897662684645e+01  2.6446060346184908e+01  1.2209241614791715e+00  3.4264937615714177e+00  2.2221220087310818e+00  8.4773971099017533e+00  7.2339471059764149e+00  1.3952611222708226e+01  5.0025013570089882e+01  6.9383737067444059e+01  1.2088203580909296e+00  4.6981003866633948e+00  6.9432631467368706e+00  2.3823762485533607e+01  8.2174410476569804e-01  5.8584261567556051e-01  2.7103525017055848e+01  5.1809343461535761e+01  8.7015143261142192e-01  4.8534022789627134e+00  2.7068153063771705e+00  5.3957808502632487e-01  2.9396010635149512e+01  1.6733336489282367e+00  7.7916321695106860e-01  2.3248087783093254e+01  1.9057488781177034e+00  2.0614050081362842e+00  1.3738488664887498e+01  7.5888497818384071e+00  6.2706876561840286e+00  1.5422387225022650e+01  1.3357954719900174e+01  2.2369409971428578e+00  3.1794953818349292e+01  5.2550448194214930e+01  6.6408998703024125e+00  7.6055598923544991e+01  4.9295869756909569e+00  2.9124939957512064e+00  5.6259941801522807e+01  2.1346940647425463e+01  3.2099454941772376e+00  1.0699831925960741e+00  1.7657984796773165e+00  2.7963355789967466e+00  1.2413272914279879e+01  5.3201482479724949e-01  1.2722993757986053e+01  9.5176620790937207e+01  2.6590167414993210e-01  5.6810852353881325e-01  7.7662535380217932e+01  1.5491457395761659e+00  3.5524266456012143e+01  7.8717083411161470e-01  4.7514738970716813e-01  1.0881461973558087e+01  1.7411299965789976e+01  7.7152835200493763e+00  4.7819903786502969e+01  1.2693258293336962e+00  7.7222651948557823e+00  2.1432308679217446e+01  7.3397268187725047e+00  4.0063301708362495e+01  </DataArray> 
</PointData> 
</Piece>
</UnstructuredGrid>
</VTKFile>