<?xml version="1.0"?>
<VTKFile type="UnstructuredGrid"  version="0.1"  >
<UnstructuredGrid>
<Piece  NumberOfPoints="1137" NumberOfCells="2145">
<Points>
<DataArray  type="Float64"  NumberOfComponents="3"  format="ascii">1 1 0  1 0 0  0 1 0  0.1 0 0  0 0.05 0  0 0.05641971619594539 0  0 0.06322986786820817 0  0 0.07045420196407083 0  0 0.07811790768157438 0  0 0.08624770808715455 0  0 0.09487194994846838 0  0 0.1040207043874731 0  0 0.1137258677965665 0  0 0.1240212873534748 0  0 0.134942853541206 0  0 0.1465286544922128 0  0 0.1588190837111857 0  0 0.1718569968291545 0  0 0.1856878530551505 0  0 0.2003598805197611 0  0 0.2159242370802473 0  0 0.2324351913288736 0  0 0.2499503170106759 0  0 0.2685306827772707 0  0 0.2882410738557559 0  0 0.3091502182448865 0  0 0.331331019938197 0  0 0.3548608263258946 0  0 0.3798216750037147 0  0 0.4063006041406724 0  0 0.4343899354864274 0  0 0.4641876143006141 0  0 0.495797537706519 0  0 0.5293299268010706 0  0 0.5649016984808003 0  0 0.602636893944239 0  0 0.6426670759707893 0  0 0.6851318275715301 0  0 0.730179214225338 0  0 0.7779663091544037 0  0 0.8286597363511584 0  0 0.882436252947565 0  0 0.9394833709468718 0  0.06249999999987328 1 0  0.1249999999997738 1 0  0.1874999999995943 1 0  0.2499999999994121 1 0  0.3124999999992298 1 0  0.3749999999990476 1 0  0.4374999999988654 1 0  0.499999999998694 1 0  0.5624999999988478 1 0  0.6249999999990125 1 0  0.687499999999177 1 0  0.7499999999993416 1 0  0.8124999999995062 1 0  0.8749999999996708 1 0  0.9374999999998354 1 0  1 0.9374999999997397 0  1 0.8749999999995011 0  1 0.812499999999913 0  1 0.7500000000003465 0  1 0.68750000000078 0  1 0.6250000000012137 0  1 0.5625000000016472 0  1 0.5000000000020591 0  1 0.4375000000018207 0  1 0.3750000000015605 0  1 0.3125000000013005 0  1 0.2500000000010404 0  1 0.1875000000007803 0  1 0.1250000000005203 0  1 0.06250000000026013 0  0.9396648373940344 0 0  0.8829700014998429 0 0  0.82969585342786 0 0  0.7796360151474734 0 0  0.7325965427749791 0 0  0.6883952109144735 0 0  0.6468607712921666 0 0  0.6078323192111611 0 0  0.5711586569394695 0 0  0.5366976957774012 0 0  0.5043159506011229 0 0  0.4738879630923322 0 0  0.4452958514001596 0 0  0.4184288540885097 0 0  0.3931828789845599 0 0  0.3694601238355393 0 0  0.34716868468328 0 0  0.3262222029299275 0 0  0.3065395301659712 0 0  0.2880444204860543 0 0  0.2706652079390114 0 0  0.2543345777457473 0 0  0.2389892577877266 0 0  0.2245698009037149 0 0  0.2110203432479412 0 0  0.1982883964102432 0 0  0.1863246331631639 0 0  0.1750827043052944 0 0  0.1645190610642211 0 0  0.1545927750755394 0 0  0.145265393047426 0 0  0.1365007809676015 0 0  0.1282649834341571 0 0  0.1205260944560093 0 0  0.113254132370149 0 0  0.1064209250303661 0 0  0.005784859596018904 0.04863597528092936 0  0.01153262536967983 0.04712324510306126 0  0.01723947537709387 0.04546281534765262 0  0.02290161488109292 0.04365579010794296 0  0.02851527887451473 0.04170337095499269 0  0.03407673458367333 0.03960685613872297 0  0.03958228395050609 0.03736763972463153 0  0.04502826609154659 0.03498721066682659 0  0.05041105973220503 0.03246715181795778 0  0.055727085614764 0.02980913887668285 0  0.0609728088782833 0.02701493927347054 0  0.0661447414091729 0.02408641099531717 0  0.07123944416058675 0.0210255013502885 0  0.07625352943910467 0.01783424567272568 0  0.08118366315754964 0.01451476596974322 0  0.08602656705176039 0.01106926951034373 0  0.09077902086056806 0.007500047357636958 0  0.09543786446710582 0.003809472845394152 0  0.1405600244420426 0.1258320481983047 0  0.4504736989692804 0.4479123904208627 0  0.341983044009625 0.2154027006630004 0  0.07120221551909621 0.1002175233175991 0  0.1777411622729022 0.2937311992523397 0  0.120377325475173 0.06239449161104797 0  0.2168873277720526 0.5131341038140772 0  0.246121249491675 0.1073009737038114 0  0.5744871428485337 0.2374444302358474 0  0.09561070365708144 0.2073239486495908 0  0.04040885480086359 0.07838547148108263 0  0.6801122235906567 0.6821728384214787 0  0.3955832855043898 0.7237008438167446 0  0.1807036687342292 0.06113194788737522 0  0.4595919072462459 0.1426084433689914 0  0.06846994457992873 0.06193988916026155 0  0.6885684245141338 0.4503079106488395 0  0.2075569197364309 0.2027547544387159 0  0.3196972136935675 0.3730129893834273 0  0.1949993336928606 0.7076555208984342 0  0.05404564191453221 0.1526738691016993 0  0.3377754706918384 0.09222359291461155 0  0.1134956780061812 0.3930611395721936 0  0.1096504999430769 0.02517838864778674 0  0.7959560989609037 0.1957256240771588 0  0.08935713407715186 0.2962334691766192 0  0.4490924072369588 0.309981016618434 0  0.08871626411572078 0.04059138050180142 0  0.1438789903682145 0.03669974751846546 0  0.2323399613517932 0.05004884320967196 0  0.03625504712591152 0.1139023254189273 0  0.5210354712403553 0.6065953164033714 0  0.3560029147702042 0.5765267334336673 0  0.2626074506286832 0.2744311840863105 0  0.6690149138531981 0.1341800212869491 0  0.216337774480288 0.3941020289199137 0  0.5556873209814153 0.8158946836925304 0  0.1085491745332214 0.5016556752092927 0  0.8185742982053889 0.5598779057196137 0  0.02056109188527689 0.06498076423862173 0  0.5642682385603413 0.3815142897532058 0  0.8209319882873247 0.8082713872540479 0  0.09761625776565343 0.1384781315599128 0  0.1914817725571857 0.1135336493886542 0  0.5573827584298471 0.1037788115427695 0  0.04485521619574653 0.05822001043796683 0  0.8347404000964391 0.3797994615746874 0  0.05620092545182723 0.2406795296946006 0  0.2775815004285766 0.1754592867168725 0  0.1470552270892125 0.1867036477676972 0  0.2875210511537986 0.8403451022729622 0  0.288916066393045 0.05638698519505973 0  0.04210069340912357 0.1936999713137662 0  0.402260711371504 0.0692469369982664 0  0.1144252078903782 0.6097524020042199 0  0.1095661852539493 0.1007705025534757 0  0.140744601276114 0.8467386354865792 0  0.6929490090463543 0.3190229621018461 0  0.1446282341785787 0.2459433958414757 0  0.151619221522436 0.08332945667196684 0  0.3821884303550711 0.1527010213274165 0  0.09227606796713239 0.06714338242693775 0  0.3169674192618363 0.4730036932112713 0  0.4199372920008007 0.2291261551075625 0  0.1691507706164423 0.02753270245645289 0  0.06627603211054997 0.044594596690439 0  0.5625909450153793 0.4960785663694931 0  0.3462255219730915 0.2959894740074935 0  0.4230131467829427 0.8641971197834012 0  0.2030047851459942 0.03356501316282028 0  0.2628631428087602 0.6146077907313077 0  0.06417542437711772 0.3561021370514571 0  0.02182495851149844 0.09112448721626877 0  0.4754711476712396 0.07214590833942149 0  0.2248483447653505 0.1542856128956795 0  0.09294799863239905 0.02592414181935683 0  0.02574911163562619 0.1440620903844698 0  0.1298380539609313 0.02106333260006795 0  0.1643478538829232 0.4497873916056335 0  0.6846079486880344 0.8628314141243876 0  0.2964891015033584 0.1256071499817454 0  0.6648075249963774 0.5659707617236819 0  0.853211279486615 0.1078398738014512 0  0.4929074065969619 0.2111050591503099 0  0.08562747573703147 0.1710871045171913 0  0.8671906726468088 0.6939273223424289 0  0.0682861951720377 0.445411763258922 0  0.1730871047501985 0.149199548907898 0  0.210743311697988 0.08300510453709452 0  0.1086411950848771 0.7144328922441444 0  0.2362341715772288 0.3275478063557472 0  0.1385824843070275 0.3427427168861424 0  0.2615365660870933 0.03264004365390101 0  0.1229447037032625 0.03753471087380588 0  0.03037788852597892 0.05564637551828724 0  0.4017813776324066 0.3831256493256874 0  0.7561162789612258 0.09509159822072462 0  0.06074336945592835 0.08166037322555424 0  0.3584265846483704 0.04802861370035927 0  0.04621270109757879 0.2886503250866301 0  0.06270259395637397 0.126884898213905 0  0.09886365617176568 0.2504296474997544 0  0.05302744505893507 0.04514123669768105 0  0.07471815307047111 0.03340980489287372 0  0.2978478253068392 0.7068848360209155 0  0.5062419853615564 0.7173650452886685 0  0.1954041294714664 0.2507770677132092 0  0.4514310423783667 0.5591338370900312 0  0.1000789560821948 0.0162085737764975 0  0.029470117771526 0.1672339013920317 0  0.144720722242187 0.06185114947496851 0  0.8870216794209889 0.2729798319879833 0  0.1151789649066671 0.1607940944785804 0  0.1061292679254512 0.04169358266726071 0  0.0474036901349852 0.09587282943826422 0  0.01788454673989555 0.1088732860920198 0  0.2565802936747245 0.2246651912043786 0  0.6604112226780771 0.2297210567295721 0  0.8913513452485757 0.4746086300835751 0  0.3235326510174789 0.1692411694779425 0  0.1525600683440516 0.01675724352638245 0  0.6191214739468608 0.07759308149074581 0  0.07853166494352773 0.07819709853916523 0  0.4796169538048557 0.378201004796538 0  0.1176236093703239 0.01292376356924127 0  0.07496979627126417 0.5599333421930319 0  0.1545114554495322 0.5539342748141115 0  0.4195103146640095 0.628333331533262 0  0.7875503367249911 0.4672064436951668 0  0.5174789487592013 0.2840829361020999 0  0.585870311793027 0.1651165440909093 0  0.3195887186275785 0.03410896163109114 0  0.2573711091034758 0.07390320992446092 0  0.2743355010595577 0.4171154934780217 0  0.133482321433102 0.2898667574663386 0  0.8926588275058236 0.8931882344856988 0  0.1824471450248482 0.3482136585833132 0  0.2842472499419619 0.5459263280025688 0  0.2921684679492219 0.3203246741484308 0  0.03056760205536429 0.2214992175260586 0  0.2317795293457207 0.02523402885115431 0  0.1788180182533714 0.0892409128498126 0  0.1626864015414708 0.04782117857404916 0  0.3874525022416323 0.5038761822680189 0  0.1716342917718725 0.2177641554342195 0  0.6150349638832521 0.3124549593904468 0  0.04830596095469329 0.4011285081721001 0  0.1271994950234271 0.08421684806449097 0  0.5873797390909831 0.674111588467222 0  0.7706732287070013 0.722632009364036 0  0.6446331357250112 0.7721089791118934 0  0.5212011449724819 0.1531075373591781 0  0.01275712617211476 0.07709457280746686 0  0.09209710472648548 0.1127237920521288 0  0.01124205397956136 0.05776206495860662 0  0.2139374993813093 0.9065626065141618 0  0.2172058739502024 0.451184455
[...]
<PointData  Scalars="f_3699"> 
<DataArray  type="Float64"  Name="f_3699"  format="ascii">1.2844301007802557e+02  0.0000000000000000e+00  0.0000000000000000e+00  0.0000000000000000e+00  0.0000000000000000e+00  0.0000000000000000e+00  0.0000000000000000e+00  0.0000000000000000e+00  0.0000000000000000e+00  0.0000000000000000e+00  0.0000000000000000e+00  0.0000000000000000e+00  0.0000000000000000e+00  0.0000000000000000e+00  0.0000000000000000e+00  0.0000000000000000e+00  0.0000000000000000e+00  0.0000000000000000e+00  0.0000000000000000e+00  0.0000000000000000e+00  0.0000000000000000e+00  0.0000000000000000e+00  0.0000000000000000e+00  0.0000000000000000e+00  0.0000000000000000e+00  0.0000000000000000e+00  0.0000000000000000e+00  0.0000000000000000e+00  0.0000000000000000e+00  0.0000000000000000e+00  0.0000000000000000e+00  0.0000000000000000e+00  0.0000000000000000e+00  0.0000000000000000e+00  0.0000000000000000e+00  0.0000000000000000e+00  0.0000000000000000e+00  0.0000000000000000e+00  0.0000000000000000e+00  0.0000000000000000e+00  0.0000000000000000e+00  0.0000000000000000e+00  0.0000000000000000e+00  1.7502297248990800e+01  3.0030794876562975e+01  4.0351420596257967e+01  4.9432039576989496e+01  5.7609905851565919e+01  6.5141753097368465e+01  7.2194041124770010e+01  7.8909658785328219e+01  8.5340207106557344e+01  9.1618784759089991e+01  9.7766886072666026e+01  1.0386679123410909e+02  1.0995988591824997e+02  1.1607002716371169e+02  1.2222371768383044e+02  1.2222429922889754e+02  1.1607050743682895e+02  1.0996050047392255e+02  1.0386794314731510e+02  9.7765899519372496e+01  9.1615791612302331e+01  8.5340198747731094e+01  7.8896818933731112e+01  7.2190685341374333e+01  6.5164146364293032e+01  5.7612957032181285e+01  4.9427281258457356e+01  4.0363714108467690e+01  3.0083930623565113e+01  1.7664574835399669e+01  0.0000000000000000e+00  0.0000000000000000e+00  0.0000000000000000e+00  0.0000000000000000e+00  0.0000000000000000e+00  0.0000000000000000e+00  0.0000000000000000e+00  0.0000000000000000e+00  0.0000000000000000e+00  0.0000000000000000e+00  0.0000000000000000e+00  0.0000000000000000e+00  0.0000000000000000e+00  0.0000000000000000e+00  0.0000000000000000e+00  0.0000000000000000e+00  0.0000000000000000e+00  0.0000000000000000e+00  0.0000000000000000e+00  0.0000000000000000e+00  0.0000000000000000e+00  0.0000000000000000e+00  0.0000000000000000e+00  0.0000000000000000e+00  0.0000000000000000e+00  0.0000000000000000e+00  0.0000000000000000e+00  0.0000000000000000e+00  0.0000000000000000e+00  0.0000000000000000e+00  0.0000000000000000e+00  0.0000000000000000e+00  0.0000000000000000e+00  0.0000000000000000e+00  0.0000000000000000e+00  0.0000000000000000e+00  1.1844791790426755e-01  2.2017716836433518e-01  3.1016733612128400e-01  3.9112688469965912e-01  4.6424407662959305e-01  5.2737505138619389e-01  5.8072930676919032e-01  6.2367693067964836e-01  6.5543915612443515e-01  6.7538331560103604e-01  6.8257380822378644e-01  6.7628475601123528e-01  6.5429929889344673e-01  6.1782407904848291e-01  5.6115753156485382e-01  4.8589932145298748e-01  3.8154968677822926e-01  2.3557826025388376e-01  2.7333643246383681e+00  3.0454532935014335e+01  1.1207937973670054e+01  1.1827986280865568e+00  7.9379098898785809e+00  1.2434816433028970e+00  1.7178313089771418e+01  4.0263236531096247e+00  2.1224248563523254e+01  3.0298367102749673e+00  6.1021271687605683e-01  6.7220663010964529e+01  4.4373935139981810e+01  1.7107122129107155e+00  1.0096732469863547e+01  8.4602808989904565e-01  4.7046656198712789e+01  6.3997531957732674e+00  1.8100285634166145e+01  2.2598791312344758e+01  1.2879363977001572e+00  4.7581304368115624e+00  6.8318136168764552e+00  5.5107060570467226e-01  2.6786170932002022e+01  4.0350962592295359e+00  2.1182738936790035e+01  7.7302958527216181e-01  8.5966036660426126e-01  1.7804014588286581e+00  6.8262031803666945e-01  4.7134292128702022e+01  3.1374962475367049e+01  1.0945704343535592e+01  1.4634680846925763e+01  1.3005749140541102e+01  6.7409840820441218e+01  8.4678197468754401e+00  6.8054226812519062e+01  3.1780957361268058e-01  3.2748237540915284e+01  9.2043210973219615e+01  2.1055567318414488e+00  3.3310015280340073e+00  9.0934991280170987e+00  6.1495822609048201e-01  5.0984164705803906e+01  2.0638535619872229e+00  7.4072404571164210e+00  4.1920220889460245e+00  4.0870348702952434e+01  2.4856862431421090e+00  1.2530055999392038e+00  4.2760561810457043e+00  1.1130717385437954e+01  1.7602820083333810e+00  2.1941210479166923e+01  3.4798234596251021e+01  5.4143469470112997e+00  1.9756084324686027e+00  8.9197249726926824e+00  1.0919050337357192e+00  2.2831021816392095e+01  1.4691475055702494e+01  7.3278544346049845e-01  7.3606304015907020e-01  4.1809093292917758e+01  1.5560959164697802e+01  5.8071920407432110e+01  1.0508572621302457e+00  2.5259720691810013e+01  3.4921559319075524e+00  3.6251230942221996e-01  5.3164074908183458e+00  5.2855009161862121e+00  6.0043920849409715e-01  5.8677701578173702e-01  4.7444099205847351e-01  1.1367383206843424e+01  8.4166195787501280e+01  5.6715023969220368e+00  5.5624895836584514e+01  1.7331909729024922e+01  1.6030427474998781e+01  2.2565284797151342e+00  8.5478883722798201e+01  4.6927147683006076e+00  3.9499555492351215e+00  2.6805850360855290e+00  1.2991325884993714e+01  1.1766710334331172e+01  7.2448585112629527e+00  1.3045439875998137e+00  8.0016373497232007e-01  4.5311707302969190e-01  2.3306620427625145e+01  1.2414760657218993e+01  8.9195021132605656e-01  2.6317475796855461e+00  2.0321470967986479e+00  1.2693835153800586e+00  3.7697412467992422e+00  6.6592557861051949e-01  7.0014085857554376e-01  3.3468381487444667e+01  5.4434638894906982e+01  7.4536533310135216e+00  3.8014514648723562e+01  4.2036095583351357e-01  7.6637707711460601e-01  1.4263564151585328e+00  4.2527712014794112e+01  2.8480448396987326e+00  8.2376233045840874e-01  7.8621090004263572e-01  3.2935974431648424e-01  8.7616912822273392e+00  2.4187405248938667e+01  6.5912119117639421e+01  8.3375644042297363e+00  4.1348477930701433e-01  7.7379895272339541e+00  1.0761178895865964e+00  2.7488223608079494e+01  2.9495971720317177e-01  6.6290691847810281e+00  1.3396976326664374e+01  4.0048439326655092e+01  5.6301842387077187e+01  2.2542417869287902e+01  1.5255887837519001e+01  1.6621638794712195e+00  2.9004770571816079e+00  1.7419997715410947e+01  5.8928254708680408e+00  1.0723206348712074e+02  9.6748952451214763e+00  2.3879861370128275e+01  1.4207219427917794e+01  1.0369765968494236e+00  8.9603796266961089e-01  2.4613068618504479e+00  1.2246846780028540e+00  2.9578963448432958e+01  5.6918860770196238e+00  2.9776721144897099e+01  2.9725798335713849e+00  1.7069608883245819e+00  5.8281735470242431e+01  7.9179630633708030e+01  7.2013169081863637e+01  1.2414772033246967e+01  2.0257419265388260e-01  1.6541824626297155e+00  1.8599889872776409e-01  3.6175058482289316e+01  1.5011701408543825e+01  1.8592480465587391e+00  4.2265905183024390e+00  6.0261859712599852e+00  4.4997562888648837e+01  8.3414589120421401e-01  2.1419299965774994e+00  6.5794535755986217e+01  3.8721509382843600e+01  2.2565210287455493e+01  1.3508673321920446e+00  3.8314406464550115e+00  2.8768975438866153e+01  7.0792418974147111e+01  5.7063935644818053e-01  1.5344401027279188e+01  1.8679415368915588e+01  5.5763699244896685e+00  9.6726353895548371e+01  1.4316190312920284e+01  9.7668586074594785e+01  2.7599026489051148e+00  1.1597465071218254e+00  4.0770366670884401e+00  1.0687462377202255e+01  1.0755776521070537e+01  1.0008847323209590e+01  9.6427861088401041e+00  5.4537792110467820e-01  7.5497132592584371e-01  4.4451016027623824e+00  3.5240545090634498e+01  8.0495683024628093e+01  3.4406641254690911e+01  5.3372933960693743e+01  3.7930459345320067e+01  1.8061435419750518e+00  1.7156544953072732e+00  7.8815599129931782e+00  3.7623678514216063e-01  1.6318375148109860e+00  2.6902985358733051e+00  6.8110162936513845e+00  7.2448731228877605e+00  1.9350945105138212e+01  4.7222103539906896e-01  3.3821664469424264e+00  6.8877966031030429e+00  1.1657392883103160e+01  4.6257858646391817e+01  6.3993401492947974e+00  2.1814587490496598e+00  3.2600047010929821e+01  8.0722709394862108e+01  1.5253193818871100e+01  1.1714349764163792e+01  9.2958062345701264e-01  5.4703929937910175e+01  5.0236365896533952e+00  7.9182276941061875e+00  6.4080519147811521e-01  5.6502870010723306e+01  1.8465710155476007e+01  1.1759271557461086e+00  1.2064387094072562e+00  2.1810615799274842e+01  4.1171939095269110e+00  3.3007829480141082e-01  4.9309094388106807e+01  5.5810513764497372e+01  1.2741435046075910e+01  5.4273018118804461e-01  2.3840635466703710e+00  4.8443255747677849e+00  2.7940183263943168e+00  1.9284956412767475e+01  6.0640061219218033e-01  8.1496493578596699e+01  7.1705940393261780e-01  9.4687789852850379e-01  3.8244140229507124e+01  1.5835341326412727e-01  4.2787494731745968e+00  1.8089721610534406e+00  3.1419518464693024e+00  4.0559720589722581e-01  2.1600594224852858e+00  4.7269549167493663e+00  1.3598509763860924e+00  6.9398115447674125e-01  1.9001883592112286e+01  9.7926264706867716e-01  3.8634132059001992e+01  8.9054197446559584e+00  3.0231422476338391e+01  4.7356455381766175e+01  3.0068846964519045e+00  1.7747289752695017e+00  1.9723713789577108e+01  9.5975376690215075e+00  9.7492545962166932e-01  9.1556901865208591e+00  3.6674035892512075e-01  1.6978100018698687e+01  2.7805879079691431e-01  1.4755175540893893e+01  2.7010285924571868e+00  4.1584763513716128e-01  1.5090922709797240e+01  2.3936870986634612e-01  7.5372324485131969e+01  6.3010162687902813e+01  6.9790537997256863e-01  3.6785238322939490e-01  2.2419431791332807e+00  1.2980792030254340e+01  1.1329015207431847e+00  1.7569570501400854e+01  2.1220601501355785e-01  5.3036496886243416e+00  6.3118717746945274e-01  5.9013665773715662e-01  9.5304601480822644e+00  2.8265180237850469e+00  5.4483068339412721e-01  3.5444439337270239e+01  2.5709093096666030e-01  5.3736408260955759e-01  3.8794667804298819e+00  4.4295826793680062e+00  2.0738293186143782e+01  2.1957260641734999e+00  1.3276358249762920e+01  1.2945207075357736e+00  1.7935390243448204e+01  2.6749293395094551e+01  5.8550824687553629e+01  2.6735587807349779e+00  6.8524207597684992e+00  1.3875536071173713e+01  1.1298114429646672e+01  8.4802195389389134e-01  2.6502250554820492e+01  2.9363203626989431e+00  1.1100930980901382e+00  4.2905945113486847e+00  2.6977968390927661e+01  7.5356061066949998e-01  5.4550320161059354e+00  1.6745848069524771e-01  7.8007268215879932e-01  2.7696930508400886e+01  1.0246340066321913e+00  2.4303597312212628e+00  1.4225627348418182e+00  1.5763397103171135e+00  7.6844539208997276e+01  4.8312337186400846e+01  2.7976166524113655e+01  3.2148111737635130e+00  7.8302633706381619e-01  4.7786065179423733e+00  9.1869187707129889e+00  4.9799762423871448e+00  2.5961412531236259e+00  6.2396397289838731e+01  7.5574138017761638e-01  7.5385428270837751e-01  2.7845997993092482e+01  9.7465477730717698e+00  3.4750569098913946e+00  5.1843010310160977e+00  2.0682788636125071e+00  1.5061617679851658e+00  4.7931097340592302e+01  4.0204885852424199e-01  7.6145402885341326e+01  7.9441060421197704e+00  4.9575736475380727e-01  2.2580524789687950e+00  9.3176330709961618e+01  2.8730586431727889e-01  4.3334806928047328e+01  3.8273483433836755e+00  6.9904331329519644e+00  9.3976219413134785e+01  7.5892671337647777e-01  2.9788425130649610e+01  1.7371558770161124e+00  9.8146821499473647e-01  5.1634004193779619e+00  5.2840244163291059e+00  1.1887963358233946e+00  2.6041472767078581e+01  6.3435103336545502e+01  6.3222545196997404e-01  8.6810148513239271e-01  5.0076674119571267e+00  2.8775822639464199e+01  6.1377613959278288e-01  2.0248403705663737e+01  5.6220500646375795e+00  2.4267150314848507e+01  2.0818436074089572e+01  7.8320639542296555e-01  3.6880565719360496e+00  1.0329332641807312e+01  9.6593499624917154e+00  6.4081634164265623e+01  1.2838307034573220e+00  3.0106403716667387e+01  3.9639082130259347e+01  6.7604655237422107e-01  1.0639552923185354e+00  1.2513068063808936e+01  2.8444541588781029e+00  8.7334308132821775e+01  5.8610917323514766e-01  1.5580258189562277e+00  6.9433799962978993e-01  7.7291685211233085e-01  2.9206199820147174e+00  4.2333328263664704e+01  4.0069733443196509e-01  7.5188939591753563e+00  6.7484204248941293e-01  1.0613287309855119e+02  3.6165474565439503e+01  1.1705479055234540e+00  6.2820827049767285e+00  4.0754807970985155e+01  8.0999090651755381e+00  9.4723270968963327e+00  4.4006590533496592e-01  2.9392467909003063e+01  1.2323552799078325e+01  9.9236626545059252e+00  1.0660073607504989e+02  1.3184575338797844e+00  2.7095723657561457e+01  1.6405471373125599e-01  3.7617233339697520e+01  4.9589416541481834e-01  5.7569648921988907e+01  5.2639440568854212e-01  4.0537144167116651e-01  6.3464980237898040e+01  9.7889938595137982e-01  2.0708004803761728e+01  8.5783279210211276e+00  1.5060170026848638e+00  1.4158438305492913e+01  4.7503612676180434e-01  4.7947075425639426e+01  3.2980282210648767e+01  5.6454022969507633e-01  1.5713631027732260e+01  2.3578015414024711e+00  1.2349489096937086e+01  1.9756480796186825e+01  8.0265162515536037e+00  1.0832064688600374e+00  6.3501164090726538e+00  3.7365581876998797e+00  1.6708540399555485e+01  1.1932593683548932e+01  6.5328744719354859e+01  1.3604916457893326e+00  3.0577292760616771e+01  4.8481577549733403e+00  4.0686638926476465e-01  7.1909342730870961e+01  4.4296823944240046e+01  7.3758474472141572e+01  2.1802207669656437e-01  6.9108162570623999e-01  1.8208856817958494e+00  6.8731059092279878e+00  7.9886221198318674e-01  2.4861548002709783e+00  6.1366032226346121e+00  6.5295296218092869e+00  6.2681628799799283e+00  1.3931120544914437e+00  6.7836141484395966e+00  1.5730938314739202e+01  6.2941392666577811e-01  5.9475471891059172e+01  4.0971799357480538e+00  6.6217542966678300e-01  5.3265517472859045e+01  4.1900536747535773e+00  7.0879074592731450e-01  2.5488949372599748e+01  1.5946349412802134e+00  9.8076141183441425e+00  8.9439616832176881e+01  4.9209755099734434e+00  4.7485466518665715e+00  6.7568173988337170e+00  7.3877024635272761e+00  9.8539208170338355e+01  1.9491707558396826e+01  6.0613218243848323e+01  4.9724331702190000e+01  1.1567344386852484e+02  4.2511887300014074e+01  2.0723294688618307e-01  4.9127991505178065e-01  1.7426981618586104e+00  1.9787460046657619e+00  2.3874920602603403e+01  8.8172689387597831e+00  3.8615757504611374e+00  7.9504368996578256e-01  3.3406917465415851e+00  4.6654248188400960e+00  2.2491562415843283e+00  1.2257734642904214e+00  8.8700775346600381e+01  2.6429468839686916e+01  2.1009869887993715e+00  9.3565965589170819e-01  1.8661092453001455e+00  5.2612641494017836e+01  1.4292169148748186e+00  3.6205278295861704e-01  4.7962554047732780e+01  3.9685428976776883e+01  1.2793888571047032e-01  5.0336924462936700e+01  1.0607499828961635e+00  5.2638137543748076e-01  3.5401732234604659e+00  8.2820806917162262e+00  1.5415086243766421e+01  3.4296601752729035e+00  7.1783847831516951e+01  1.1864371816760997e+00  1.8120064620397212e+01  3.1747751627693425e+01  9.9232407473663969e+01  4.2486236186968862e-01  3.3352305016119264e+00  1.3744082807821465e+01  9.5784084560178839e-01  6.0258437571563782e+01  1.4242087743485143e+00  1.4491555141498701e+01  2.5861556073943608e+00  3.0683183307056176e+01  3.7325751444806154e-01  1.4526972903594053e+00  4.0961625508566826e+01  9.7654356542971907e+00  1.6294106350904785e+00  1.0663426539143023e-01  3.5000118853907267e+00  6.2191380297922993e+00  2.9262614750517955e+00  1.0215900356940546e+01  7.0857266678061407e+01  3.0377708398772838e+00  4.8184671303467763e-01  3.0880868797636786e+01  3.5473264975470449e+00  4.1867328971070862e+01  2.0416637014528000e+01  9.5364910325811465e+00  8.8010536741196729e-02  1.4176722931779492e-01  2.1511878238191038e+01  2.0527238313459959e+00  3.5893387156305421e+00  1.0536919481721456e+00  1.4665656772257427e+00  3.1294218894921894e-01  1.0539519807520177e+00  2.5705965169133027e-01  9.3579857788423482e-01  7.0178729908393100e-01  8.8746592505020487e+01  7.2958752625552606e+01  2.9543657473399701e+01  2.4219576240497913e+00  5.0792557076584330e+01  1.4070892794996475e+00  7.1866769969747846e-01  2.1405146529909409e+01  5.7501633736960194e+01  3.6164539488614929e+00  7.8504180029583253e+01  7.1501681067942201e+01  1.6553805008687297e+00  5.9399548120950145e+00  3.5984364991574964e+01  2.0275476012153817e+00  1.1051401752896993e+01  1.2428063842238011e+01  8.9514454700663848e-01  3.2710581895783790e+01  2.8322860206009524e+00  7.3188404601142198e-01  1.5353796841186064e+01  2.9116529948020511e+00  9.1813404024714396e-01  6.3932847814438460e+00  3.4893440922948564e+01  3.8294874467843215e+01  8.3493612247051829e-01  1.0996555402275375e+01  1.0642008409116629e-01  5.8796411687480399e+00  4.8558314345282987e+01  7.5684700227530200e+01  7.9028850657873786e+00  5.9604229291058729e+01  4.9020482297940662e+00  7.3181392939656542e-01  1.4863165260590030e+01  5.9653281740790414e+00  1.3212691447753042e+00  1.1597527222933136e+01  5.9918459729186135e-01  2.8001981550034322e-01  1.5548291978286590e+01  4.8167552908082173e-01  2.1880475510351576e+00  2.3279443291229175e+01  7.5202875215257921e+00  3.3237586964267321e+00  6.7095677989395757e+00  7.5849677350699496e-01  1.8943198340085274e+00  9.4805060383369977e-01  3.0058403418698640e+00  7.1281460871597857e-01  4.7413957538881055e+00  2.4764897305529136e+01  2.5712094148483708e+01  2.8213122138703753e+01  2.0071242107726523e+01  5.0495724248743254e+00  3.3933765854243680e+00  1.9972159379746295e+00  5.6889245365871250e+00  1.5832837610691753e+01  5.0884963343078233e+01  9.8154609383515403e+00  4.1948991356685389e-01  8.8723480919428566e-01  1.0890405327704968e+00  8.4434173962078191e+01  1.0060028024907661e+01  1.0765746682740959e+01  5.6740173108774608e+00  7.3095002248614245e+00  5.5718455359111629e-01  4.4933884111645071e+01  1.5905203764277120e+01  2.0173353179493669e+00  2.0477953323961079e-01  2.7015521327540707e+01  6.8192794888696877e+00  1.3779129241431538e+00  3.2378823374951654e-01  7.8789097967561994e-01  4.0423186018511110e+01  2.3150439169827813e+01  6.4443385017053323e-01  2.7050019999410453e+00  7.8548732217350420e+01  2.4513701936973464e+00  1.9291576359833449e+00  7.8781565477879610e+01  1.7609606646257330e+01  1.1868263160714971e+00  6.3908250082588247e-01  1.4060106473108926e+01  6.8799806523856821e-01  1.0943664855018524e+01  4.4792008612843679e+00  1.8664098265824591e+00  5.8193073592963671e+00  9.1734800003501968e-02  8.1695962383799725e-01  6.0678943253833921e+00  8.1312310992968193e+00  2.5415233040507226e+00  6.9079874959829354e+01  5.7461574344188271e+01  4.6111161517746716e+01  1.1424127782317365e+01  1.7750691469477404e+00  1.6198514637104505e-01  2.3839202657525853e+01  7.8046732411703357e-01  6.3926043264696212e+01  3.4191547719313277e+01  3.0315490307805837e-01  1.7486384285533482e+01  6.4632414224325387e+01  8.2668164874242507e+00  6.0383284031298485e+00  5.1237130099045258e-01  1.2700824541004492e+01  4.1018647901687025e+01  2.3755284276871365e+01  4.2302119713744379e-01  1.9663568326752539e+01  1.9069831370613958e+01  8.4939963386928152e-01  4.1172481270106349e+00  2.9137458252601729e+01  3.5646646615976039e+01  2.0412845344946127e+00  6.0063299981309566e+00  1.7131455239604669e+01  2.2059269020747969e+01  2.0033839763289933e+01  4.1239329961826442e+01  3.4810705901959714e+01  3.7838373704789565e+00  8.5077758456298920e+00  2.7886199178396603e-01  1.8798376578518878e+00  3.2382275051037453e+01  1.0195307688701971e+02  2.5791964212858871e+00  5.2243920687002898e-01  6.1124594292974110e-01  2.2320543072786822e-01  1.0651939029233203e+01  1.3683725514275100e+01  2.7497162131080639e+00  1.1625060850889643e+01  4.1121465412117189e+01  4.0321850346997973e-01  4.6059856372074472e+00  1.4711530548623344e+01  4.9234907930441203e+00  3.7907079537470693e+01  1.7046768327652220e+00  1.2841332141148074e+00  1.7249827969583393e+01  4.4682868793664625e+01  1.4726950296478