<?xml version="1.0"?>
<VTKFile type="UnstructuredGrid"  version="0.1"  >
<UnstructuredGrid>
<Piece  NumberOfPoints="27457" NumberOfCells="54268">
<Points>
<DataArray  type="Float64"  NumberOfComponents="3"  format="ascii">1 1 0  1 0 0  0 1 0  0.1 0 0  0 0.05 0  0 0.05122845360831804 0  0 0.05247120380176079 0  0 0.05372841695501402 0  0 0.05500026150888222 0  0 0.05628690801831129 0  0 0.05758852838275295 0  0 0.05890529691408671 0  0 0.06023738995522211 0  0 0.06158498589252134 0  0 0.06294826516639482 0  0 0.06432741028016105 0  0 0.06572260580725821 0  0 0.06713403839689337 0  0 0.06856189762028958 0  0 0.07000637392188919 0  0 0.07146766105263459 0  0 0.07294595545385259 0  0 0.07444145276329071 0  0 0.07595435572755767 0  0 0.07748486490719994 0  0 0.07903318731037468 0  0 0.08059952836324086 0  0 0.08218409800372904 0  0 0.08378710971557592 0  0 0.08540877676506251 0  0 0.08704931632558889 0  0 0.08870894915483368 0  0 0.0903878963389235 0  0 0.09208638367879514 0  0 0.09380463710606268 0  0 0.09554288809908837 0  0 0.09730136914057272 0  0 0.09908031447038111 0  0 0.1008799634102842 0  0 0.1027005572237485 0  0 0.1045423387608388 0  0 0.1064055548807513 0  0 0.1082904549842762 0  0 0.1101972914975654 0  0 0.1121263194087267 0  0 0.1140777978618432 0  0 0.1160519874983605 0  0 0.1180491524638201 0  0 0.1200695604057186 0  0 0.122113482261994 0  0 0.1241811908503368 0  0 0.1262729632624391 0  0 0.1283890798947253 0  0 0.1305298240262422 0  0 0.1326954819456261 0  0 0.1348863432758441 0  0 0.1371027026674777 0  0 0.1393448554656976 0  0 0.1416131021349107 0  0 0.1439077471682532 0  0 0.1462290971448559 0  0 0.1485774628467982 0  0 0.1509531587042392 0  0 0.1533565027704562 0  0 0.1557878171861148 0  0 0.1582474272840288 0  0 0.1607356621697438 0  0 0.1632528549623705 0  0 0.1657993426890345 0  0 0.1683754663266217 0  0 0.1709815709401678 0  0 0.1736180055393663 0  0 0.1762851228139485 0  0 0.1789832798346495 0  0 0.1817128382029542 0  0 0.1844741631889638 0  0 0.1872676241407711 0  0 0.1900935953175798 0  0 0.1929524551618977 0  0 0.1958445865129603 0  0 0.1987703762829806 0  0 0.2017302170081516 0  0 0.2047245040853408 0  0 0.207753637956253 0  0 0.2108180251572844 0  0 0.213918074000714 0  0 0.2170542029318014 0  0 0.220226830398656 0  0 0.2234363798980221 0  0 0.2266832823600635 0  0 0.2299679725257835 0  0 0.2332908890423809 0  0 0.2366524779809444 0  0 0.2400531899424344 0  0 0.2434934776333743 0  0 0.2469738043299475 0  0 0.2504946354149822 0  0 0.254056441367454 0  0 0.2576596998138591 0  0 0.2613048922981652 0  0 0.2649925075667702 0  0 0.2687230394026137 0  0 0.2724969873674931 0  0 0.2763148556869052 0  0 0.2801771574004618 0  0 0.2840844072916186 0  0 0.2880371308305292 0  0 0.2920358554492154 0  0 0.2960811164340635 0  0 0.3001734580304584 0  0 0.3043134240595089 0  0 0.3085015725625463 0  0 0.3127384622086586 0  0 0.3170246603249418 0  0 0.3213607407509564 0  0 0.3257472858987104 0  0 0.3301848801863515 0  0 0.33467412004237 0  0 0.3392156044241151 0  0 0.3438099433294173 0  0 0.3484577512878585 0  0 0.353159650080984 0  0 0.3579162693840366 0  0 0.3627282460921905 0  0 0.3675962244558005 0  0 0.3725208562044943 0  0 0.3775028006605872 0  0 0.3825427248422815 0  0 0.3876413035571014 0  0 0.3927992194860054 0  0 0.3980171632585973 0  0 0.4032958335198583 0  0 0.4086359369887916 0  0 0.4140381885093747 0  0 0.4195033110941946 0  0 0.425032035961125 0  0 0.4306251051964314 0  0 0.4362832651977659 0  0 0.4420072760656402 0  0 0.4477979023306188 0  0 0.4536559196711149 0  0 0.459582112962027 0  0 0.4655772765464282 0  0 0.471642207993667 0  0 0.4777777256430162 0  0 0.4839846481812909 0  0 0.4902638064650609 0  0 0.4966160402627527 0  0 0.5030422025758937 0  0 0.5095431516456798 0  0 0.5161197593603114 0  0 0.5227729040786778 0  0 0.529503478651147 0  0 0.5363123850451601 0  0 0.5432005298765519 0  0 0.5501688408657173 0  0 0.5572182503443972 0  0 0.5643497002269494 0  0 0.5715641453300782 0  0 0.5788625516465917 0  0 0.5862458952746765 0  0 0.5937151689156246 0  0 0.6012713680128323 0  0 0.6089155066718391 0  0 0.6166486071274221 0  0 0.6244717052442426 0  0 0.6323858469698163 0  0 0.6403920954496736 0  0 0.6484915206746714 0  0 0.6566852076765086 0  0 0.6649742490815893 0  0 0.6733597622238869 0  0 0.6818428641604672 0  0 0.6904246920005918 0  0 0.6991063947738093 0  0 0.7078891339073494 0  0 0.7167740889269379 0  0 0.7257624452625111 0  0 0.7348554089414197 0  0 0.7440541942093895 0  0 0.7533600370711606 0  0 0.7627741810181882 0  0 0.7722978860505116 0  0 0.7819324275816147 0  0 0.7916790956824162 0  0 0.80153919533056 0  0 0.811514046638366 0  0 0.8216049850603495 0  0 0.8318133615812159 0  0 0.8421405428852038 0  0 0.8525879115076366 0  0 0.8631568659694967 0  0 0.8738488234783863 0  0 0.8846652135541528 0  0 0.8956074831740467 0  0 0.9066770996322058 0  0 0.917875543445472 0  0 0.9292043156130901 0  0 0.9406649308929571 0  0 0.9522589246964699 0  0 0.9639878494206804 0  0 0.9758532758281114 0  0 0.9878567942118178 0  0.01219512195119648 1 0  0.02439024390239303 1 0  0.0365853658535877 1 0  0.04878048780478032 1 0  0.06097560975597382 1 0  0.07317073170717255 1 0  0.0853658536583734 1 0  0.09756097560957427 1 0  0.1097560975607752 1 0  0.1219512195119744 1 0  0.1341463414631642 1 0  0.1463414634143481 1 0  0.1585365853655321 1 0  0.170731707316716 1 0  0.1829268292678999 1 0  0.1951219512190839 1 0  0.2073170731702679 1 0  0.2195121951214518 1 0  0.2317073170726358 1 0  0.2439024390238198 1 0  0.2560975609750037 1 0  0.2682926829261877 1 0  0.2804878048773716 1 0  0.2926829268285556 1 0  0.3048780487797396 1 0  0.3170731707309236 1 0  0.3292682926821075 1 0  0.3414634146332915 1 0  0.3536585365844754 1 0  0.3658536585356594 1 0  0.3780487804868434 1 0  0.3902439024380274 1 0  0.4024390243892113 1 0  0.4146341463403953 1 0  0.4268292682915792 1 0  0.4390243902427632 1 0  0.4512195121939472 1 0  0.4634146341451311 1 0  0.4756097560963151 1 0  0.4878048780474991 1 0  0.4999999999986938 1 0  0.5121951219499347 1 0  0.5243902439011863 1 0  0.536585365852438 1 0  0.5487804878036896 1 0  0.5609756097549412 1 0  0.5731707317061928 1 0  0.5853658536574444 1 0  0.5975609756086961 1 0  0.6097560975599478 1 0  0.6219512195111994 1 0  0.634146341462451 1 0  0.6463414634137026 1 0  0.6585365853649542 1 0  0.6707317073162059 1 0  0.6829268292674575 1 0  0.6951219512187091 1 0  0.7073170731699607 1 0  0.7195121951212123 1 0  0.7317073170724641 1 0  0.7439024390237157 1 0  0.7560975609749673 1 0  0.7682926829262189 1 0  0.7804878048774705 1 0  0.7926829268287222 1 0  0.8048780487799739 1 0  0.8170731707312255 1 0  0.8292682926824771 1 0  0.8414634146337288 1 0  0.8536585365849804 1 0  0.8658536585362321 1 0  0.8780487804874837 1 0  0.8902439024387353 1 0  0.9024390243899869 1 0  0.9146341463412385 1 0  0.9268292682924902 1 0  0.9390243902437418 1 0  0.9512195121949935 1 0  0.9634146341462451 1 0  0.9756097560974967 1 0  0.9878048780487484 1 0  1 0.9878048780487297 0  1 0.9756097560974595 0  1 0.9634146341461891 0  1 0.9512195121949188 0  1 0.9390243902436486 0  1 0.9268292682923782 0  1 0.914634146341108 0  1 0.9024390243898377 0  1 0.8902439024385674 0  1 0.8780487804873104 0  1 0.8658536585361284 0  1 0.8536585365849935 0  1 0.8414634146338587 0  1 0.8292682926827237 0  1 0.8170731707315888 0  1 0.804878048780454 0  1 0.7926829268293191 0  1 0.7804878048781843 0  1 0.7682926829270493 0  1 0.7560975609759144 0  1 0.7439024390247795 0  1 0.7317073170736447 0  1 0.7195121951225099 0  1 0.7073170731713749 0  1 0.69512195122024 0  1 0.6829268292691051 0  1 0.6707317073179703 0  1 0.6585365853668355 0  1 0.6463414634157005 0  1 0.6341463414645656 0  1 0.6219512195134307 0  1 0.6097560975622959 0  1 0.5975609756111609 0  1 0.585365853660026 0  1 0.573170731708891 0  1 0.5609756097577561 0  1 0.5487804878066211 0  1 0.5365853658554862 0  1 0.5243902439043513 0  1 0.5121951219532164 0  1 0.5000000000020597 0  1 0.4878048780508111 0  1 0.4756097560995408 0  1 0.4634146341482706 0  1 0.4512195121970003 0  1 0.4390243902457299 0  1 0.4268292682944597 0  1 0.4146341463431894 0  1 0.4024390243919191 0  1 0.3902439024406489 0  1 0.3780487804893786 0  1 0.3658536585381084 0  1 0.353658536586838 0  1 0.3414634146355677 0  1 0.3292682926842975 0  1 0.3170731707330272 0  1 0.304878048781757 0  1 0.2926829268304867 0  1 0.2804878048792164 0  1 0.2682926829279461 0  1 0.2560975609766758 0  1 0.2439024390254055 0  1 0.2317073170741353 0  1 0.219512195122865 0  1 0.2073170731715948 0  1 0.1951219512203245 0  1 0.1829268292690541 0  1 0.1707317073177839 0  1 0.1585365853665136 0  1 0.1463414634152433 0  1 0.1341463414639731 0  1 0.1219512195127028 0  1 0.1097560975614326 0  1 0.09756097561016219 0  1 0.08536585365889193 0  1 0.07317073170762167 0  1 0.06097560975635141 0  1 0.04878048780508115 0  1 0.03658536585381089 0  1 0.02439024390254063 0  1 0.01219512195127026 0  0.9878269118047402 0 0  0.9758019988479677 0 0  0.9639234704352486 0 0  0.9521895365196386 0 0  0.9405984441069362 0 0  0.9291484498877155 0 0  0.9178378385976085 0 0  0.9066649130402594 0 0  0.8956279941968361 0 0  0.8847254314974992 0 0  0.8739555856640273 0 0  0.863316841405533 0 0  0.8528076047209598 0 0  0.8424262976807974 0 0  0.8321713633838692 0 0  0.8220412624313828 0 0  0.8120344763416212 0 0  0.8021495043887624 0 0  0.792384863572081 0 0  0.7827390885713177 0 0  0.7732107316873978 0 0  0.763798363403096 0 0  0.7545005756683687 0 0  0.74531596848517 0 0  0.7362431672544074 0 0  0.7272808103552764 0 0  0.7184275512448828 0 0  0.7096820666569056 0 0  0.7010430392098833 0 0  0.6925091762127845 0 0  0.6840791978852176 0 0  0.6757518374102995 0 0  0.667525846333855 0 0  0.6593999912506326 0 0  0.6513730534342637 0 0  0.6434438284362458 0 0  0.6356111256526064 0 0  0.62787377123328 0 0  0.6202306052036685 0 0  0.612680480311542 0 0  0.605222263031973 0 0  0.5978548356700402 0 0  0.590577092378424 0 0  0.5833879404868862 0 0  0.5762863053458102 0 0  0.569271118
[...]
<PointData  Scalars="f_55"> 
<DataArray  type="Float64"  Name="f_55"  format="ascii">1.3467584575272193e+02  0.0000000000000000e+00  0.0000000000000000e+00  0.0000000000000000e+00  0.0000000000000000e+00  0.0000000000000000e+00  0.0000000000000000e+00  0.0000000000000000e+00  0.0000000000000000e+00  0.0000000000000000e+00  0.0000000000000000e+00  0.0000000000000000e+00  0.0000000000000000e+00  0.0000000000000000e+00  0.0000000000000000e+00  0.0000000000000000e+00  0.0000000000000000e+00  0.0000000000000000e+00  0.0000000000000000e+00  0.0000000000000000e+00  0.0000000000000000e+00  0.0000000000000000e+00  0.0000000000000000e+00  0.0000000000000000e+00  0.0000000000000000e+00  0.0000000000000000e+00  0.0000000000000000e+00  0.0000000000000000e+00  0.0000000000000000e+00  0.0000000000000000e+00  0.0000000000000000e+00  0.0000000000000000e+00  0.0000000000000000e+00  0.0000000000000000e+00  0.0000000000000000e+00  0.0000000000000000e+00  0.0000000000000000e+00  0.0000000000000000e+00  0.0000000000000000e+00  0.0000000000000000e+00  0.0000000000000000e+00  0.0000000000000000e+00  0.0000000000000000e+00  0.0000000000000000e+00  0.0000000000000000e+00  0.0000000000000000e+00  0.0000000000000000e+00  0.0000000000000000e+00  0.0000000000000000e+00  0.0000000000000000e+00  0.0000000000000000e+00  0.0000000000000000e+00  0.0000000000000000e+00  0.0000000000000000e+00  0.0000000000000000e+00  0.0000000000000000e+00  0.0000000000000000e+00  0.0000000000000000e+00  0.0000000000000000e+00  0.0000000000000000e+00  0.0000000000000000e+00  0.0000000000000000e+00  0.0000000000000000e+00  0.0000000000000000e+00  0.0000000000000000e+00  0.0000000000000000e+00  0.0000000000000000e+00  0.0000000000000000e+00  0.0000000000000000e+00  0.0000000000000000e+00  0.0000000000000000e+00  0.0000000000000000e+00  0.0000000000000000e+00  0.0000000000000000e+00  0.0000000000000000e+00  0.0000000000000000e+00  0.0000000000000000e+00  0.0000000000000000e+00  0.0000000000000000e+00  0.0000000000000000e+00  0.0000000000000000e+00  0.0000000000000000e+00  0.0000000000000000e+00  0.0000000000000000e+00  0.0000000000000000e+00  0.0000000000000000e+00  0.0000000000000000e+00  0.0000000000000000e+00  0.0000000000000000e+00  0.0000000000000000e+00  0.0000000000000000e+00  0.0000000000000000e+00  0.0000000000000000e+00  0.0000000000000000e+00  0.0000000000000000e+00  0.0000000000000000e+00  0.0000000000000000e+00  0.0000000000000000e+00  0.0000000000000000e+00  0.0000000000000000e+00  0.0000000000000000e+00  0.0000000000000000e+00  0.0000000000000000e+00  0.0000000000000000e+00  0.0000000000000000e+00  0.0000000000000000e+00  0.0000000000000000e+00  0.0000000000000000e+00  0.0000000000000000e+00  0.0000000000000000e+00  0.0000000000000000e+00  0.0000000000000000e+00  0.0000000000000000e+00  0.0000000000000000e+00  0.0000000000000000e+00  0.0000000000000000e+00  0.0000000000000000e+00  0.0000000000000000e+00  0.0000000000000000e+00  0.0000000000000000e+00  0.0000000000000000e+00  0.0000000000000000e+00  0.0000000000000000e+00  0.0000000000000000e+00  0.0000000000000000e+00  0.0000000000000000e+00  0.0000000000000000e+00  0.0000000000000000e+00  0.0000000000000000e+00  0.0000000000000000e+00  0.0000000000000000e+00  0.0000000000000000e+00  0.0000000000000000e+00  0.0000000000000000e+00  0.0000000000000000e+00  0.0000000000000000e+00  0.0000000000000000e+00  0.0000000000000000e+00  0.0000000000000000e+00  0.0000000000000000e+00  0.0000000000000000e+00  0.0000000000000000e+00  0.0000000000000000e+00  0.0000000000000000e+00  0.0000000000000000e+00  0.0000000000000000e+00  0.0000000000000000e+00  0.0000000000000000e+00  0.0000000000000000e+00  0.0000000000000000e+00  0.0000000000000000e+00  0.0000000000000000e+00  0.0000000000000000e+00  0.0000000000000000e+00  0.0000000000000000e+00  0.0000000000000000e+00  0.0000000000000000e+00  0.0000000000000000e+00  0.0000000000000000e+00  0.0000000000000000e+00  0.0000000000000000e+00  0.0000000000000000e+00  0.0000000000000000e+00  0.0000000000000000e+00  0.0000000000000000e+00  0.0000000000000000e+00  0.0000000000000000e+00  0.0000000000000000e+00  0.0000000000000000e+00  0.0000000000000000e+00  0.0000000000000000e+00  0.0000000000000000e+00  0.0000000000000000e+00  0.0000000000000000e+00  0.0000000000000000e+00  0.0000000000000000e+00  0.0000000000000000e+00  0.0000000000000000e+00  0.0000000000000000e+00  0.0000000000000000e+00  0.0000000000000000e+00  0.0000000000000000e+00  0.0000000000000000e+00  0.0000000000000000e+00  0.0000000000000000e+00  0.0000000000000000e+00  0.0000000000000000e+00  0.0000000000000000e+00  0.0000000000000000e+00  0.0000000000000000e+00  0.0000000000000000e+00  0.0000000000000000e+00  0.0000000000000000e+00  0.0000000000000000e+00  0.0000000000000000e+00  0.0000000000000000e+00  0.0000000000000000e+00  0.0000000000000000e+00  0.0000000000000000e+00  0.0000000000000000e+00  0.0000000000000000e+00  0.0000000000000000e+00  0.0000000000000000e+00  4.7970064322258450e+00  8.6128782919798805e+00  1.1990714608517703e+01  1.5118306817576226e+01  1.8039496345281229e+01  2.0811020031025979e+01  2.3445483611899075e+01  2.5968550324013218e+01  2.8396307372519903e+01  3.0745049494218694e+01  3.3011553148518843e+01  3.5212266141246786e+01  3.7350195172073221e+01  3.9430535702614705e+01  4.1458142069252268e+01  4.3437290828156435e+01  4.5371245871400809e+01  4.7263324414882327e+01  4.9114725807439271e+01  5.0929621787977574e+01  5.2708602064247970e+01  5.4454541193453657e+01  5.6171890555709709e+01  5.7857172763280012e+01  5.9517053817616436e+01  6.1150235043351067e+01  6.2758226556833115e+01  6.4342811092762588e+01  6.5904745343026960e+01  6.7446971315605992e+01  6.8967784211032381e+01  7.0470548719440245e+01  7.1954796513554527e+01  7.3420888040925462e+01  7.4873204614893865e+01  7.6308048604692317e+01  7.7728634287296046e+01  7.9135292502160993e+01  8.0528524045303882e+01  8.1910286812721026e+01  8.3279652428448060e+01  8.4637658016650548e+01  8.5984886553199416e+01  8.7322569363710826e+01  8.8650835197605176e+01  8.9969154421063038e+01  9.1280341784202150e+01  9.2583215707281170e+01  9.3878507933227780e+01  9.5166932086680660e+01  9.6448823889934658e+01  9.7724448971796463e+01  9.8994859451580439e+01  1.0025971916288053e+02  1.0151973157870965e+02  1.0277481648440056e+02  1.0402593749080852e+02  1.0527326643570665e+02  1.0651698385432428e+02  1.0775739180531460e+02  1.0899512850926030e+02  1.1022994558129795e+02  1.1146239445482567e+02  1.1269256275627534e+02  1.1392099129768201e+02  1.1514755262151553e+02  1.1637283607507580e+02  1.1759673440504457e+02  1.1881937946403026e+02  1.2004126708842468e+02  1.2126233619594947e+02  1.2248278145707391e+02  1.2370269417698537e+02  1.2492227818845572e+02  1.2614158611213892e+02  1.2736075181066028e+02  1.2857980869262047e+02  1.2979885475911979e+02  1.3101794670118326e+02  1.3223712669823612e+02  1.3345643052556423e+02  1.3345643057788641e+02  1.3223712664100245e+02  1.3101794844229383e+02  1.2979884382843804e+02  1.2857981860788826e+02  1.2736074972936868e+02  1.2614160413480791e+02  1.2492228286674198e+02  1.2370270156466901e+02  1.2248278047228736e+02  1.2126234520839543e+02  1.2004131407105693e+02  1.1881940897718721e+02  1.1759668154962496e+02  1.1637284798270225e+02  1.1514759034974099e+02  1.1392099904741559e+02  1.1269267701180314e+02  1.1146236374052160e+02  1.1022991404893405e+02  1.0899507484458827e+02  1.0775749700626888e+02  1.0651700244692117e+02  1.0527326213988719e+02  1.0402593311073235e+02  1.0277481346194753e+02  1.0151959440634973e+02  1.0025984078533642e+02  9.8994905592358819e+01  9.7724520450513751e+01  9.6448989117189669e+01  9.5166880297376267e+01  9.3878552456610635e+01  9.2583155723467797e+01  9.1280463529751330e+01  8.9969271196808094e+01  8.8650861688077356e+01  8.7322283779849428e+01  8.5984764750731827e+01  8.4637259940439506e+01  8.3279788796112854e+01  8.1910022617620314e+01  8.0528581120339865e+01  7.9135518516380202e+01  7.7729015945076810e+01  7.6308092909843310e+01  7.4872252897203396e+01  7.3421883375381512e+01  7.1954711334738647e+01  7.0469905930712017e+01  6.8967866448278940e+01  6.7446643597307926e+01  6.5905402599036904e+01  6.4343484361044688e+01  6.2758387955502386e+01  6.1150387151222724e+01  5.9517481972848543e+01  5.7857078921612242e+01  5.6171230704183728e+01  5.4455815495952720e+01  5.2708396942376673e+01  5.0929003983090325e+01  4.9114554852495054e+01  4.7262999889193686e+01  4.5370285025779417e+01  4.3437959870174140e+01  4.1457046264372522e+01  3.9430756970034615e+01  3.7349653824302393e+01  3.5208464524828791e+01  3.3013495436642309e+01  3.0743548464541675e+01  2.8400458788317081e+01  2.5962233415443979e+01  2.3443039367110067e+01  2.0802860320089394e+01  1.8040448520748683e+01  1.5123116588521912e+01  1.1991607935647988e+01  8.6103212508630040e+00  4.8120027336971365e+00  0.0000000000000000e+00  0.0000000000000000e+00  0.0000000000000000e+00  0.0000000000000000e+00  0.0000000000000000e+00  0.0000000000000000e+00  0.0000000000000000e+00  0.0000000000000000e+00  0.0000000000000000e+00  0.0000000000000000e+00  0.0000000000000000e+00  0.0000000000000000e+00  0.0000000000000000e+00  0.0000000000000000e+00  0.0000000000000000e+00  0.0000000000000000e+00  0.0000000000000000e+00  0.0000000000000000e+00  0.0000000000000000e+00  0.0000000000000000e+00  0.0000000000000000e+00  0.0000000000000000e+00  0.0000000000000000e+00  0.0000000000000000e+00  0.0000000000000000e+00  0.0000000000000000e+00  0.0000000000000000e+00  0.0000000000000000e+00  0.0000000000000000e+00  0.0000000000000000e+00  0.0000000000000000e+00  0.0000000000000000e+00  0.0000000000000000e+00  0.0000000000000000e+00  0.0000000000000000e+00  0.0000000000000000e+00  0.0000000000000000e+00  0.0000000000000000e+00  0.0000000000000000e+00  0.0000000000000000e+00  0.0000000000000000e+00  0.0000000000000000e+00  0.0000000000000000e+00  0.0000000000000000e+00  0.0000000000000000e+00  0.0000000000000000e+00  0.0000000000000000e+00  0.0000000000000000e+00  0.0000000000000000e+00  0.0000000000000000e+00  0.0000000000000000e+00  0.0000000000000000e+00  0.0000000000000000e+00  0.0000000000000000e+00  0.0000000000000000e+00  0.0000000000000000e+00  0.0000000000000000e+00  0.0000000000000000e+00  0.0000000000000000e+00  0.0000000000000000e+00  0.0000000000000000e+00  0.0000000000000000e+00  0.0000000000000000e+00  0.0000000000000000e+00  0.0000000000000000e+00  0.0000000000000000e+00  0.0000000000000000e+00  0.0000000000000000e+00  0.0000000000000000e+00  0.0000000000000000e+00  0.0000000000000000e+00  0.0000000000000000e+00  0.0000000000000000e+00  0.0000000000000000e+00  0.0000000000000000e+00  0.0000000000000000e+00  0.0000000000000000e+00  0.0000000000000000e+00  0.0000000000000000e+00  0.0000000000000000e+00  0.0000000000000000e+00  0.0000000000000000e+00  0.0000000000000000e+00  0.0000000000000000e+00  0.0000000000000000e+00  0.0000000000000000e+00  0.0000000000000000e+00  0.0000000000000000e+00  0.0000000000000000e+00  0.0000000000000000e+00  0.0000000000000000e+00  0.0000000000000000e+00  0.0000000000000000e+00  0.0000000000000000e+00  0.0000000000000000e+00  0.0000000000000000e+00  0.0000000000000000e+00  0.0000000000000000e+00  0.0000000000000000e+00  0.0000000000000000e+00  0.0000000000000000e+00  0.0000000000000000e+00  0.0000000000000000e+00  0.0000000000000000e+00  0.0000000000000000e+00  0.0000000000000000e+00  0.0000000000000000e+00  0.0000000000000000e+00  0.0000000000000000e+00  0.0000000000000000e+00  0.0000000000000000e+00  0.0000000000000000e+00  0.0000000000000000e+00  0.0000000000000000e+00  0.0000000000000000e+00  0.0000000000000000e+00  0.0000000000000000e+00  0.0000000000000000e+00  0.0000000000000000e+00  0.0000000000000000e+00  0.0000000000000000e+00  0.0000000000000000e+00  0.0000000000000000e+00  0.0000000000000000e+00  0.0000000000000000e+00  0.0000000000000000e+00  0.0000000000000000e+00  0.0000000000000000e+00  0.0000000000000000e+00  0.0000000000000000e+00  0.0000000000000000e+00  0.0000000000000000e+00  0.0000000000000000e+00  0.0000000000000000e+00  0.0000000000000000e+00  0.0000000000000000e+00  0.0000000000000000e+00  0.0000000000000000e+00  0.0000000000000000e+00  0.0000000000000000e+00  0.0000000000000000e+00  0.0000000000000000e+00  0.0000000000000000e+00  0.0000000000000000e+00  0.0000000000000000e+00  0.0000000000000000e+00  0.0000000000000000e+00  0.0000000000000000e+00  0.0000000000000000e+00  0.0000000000000000e+00  0.0000000000000000e+00  0.0000000000000000e+00  0.0000000000000000e+00  0.0000000000000000e+00  0.0000000000000000e+00  0.0000000000000000e+00  0.0000000000000000e+00  0.0000000000000000e+00  0.0000000000000000e+00  0.0000000000000000e+00  0.0000000000000000e+00  0.0000000000000000e+00  0.0000000000000000e+00  0.0000000000000000e+00  0.0000000000000000e+00  0.0000000000000000e+00  0.0000000000000000e+00  0.0000000000000000e+00  0.0000000000000000e+00  0.0000000000000000e+00  0.0000000000000000e+00  0.0000000000000000e+00  0.0000000000000000e+00  0.0000000000000000e+00  0.0000000000000000e+00  0.0000000000000000e+00  0.0000000000000000e+00  0.0000000000000000e+00  0.0000000000000000e+00  0.0000000000000000e+00  0.0000000000000000e+00  0.0000000000000000e+00  0.0000000000000000e+00  0.0000000000000000e+00  0.0000000000000000e+00  0.0000000000000000e+00  0.0000000000000000e+00  3.2980907744211141e-02  6.1158076418472221e-02  8.7421156315556220e-02  1.1243340293254743e-01  1.3668713437378488e-01  1.6024180712655370e-01  1.8317432108577808e-01  2.0555485770579263e-01  2.2747162720975286e-01  2.4894562540581702e-01  2.6995330004839146e-01  2.9052137181960513e-01  3.1069368069854225e-01  3.3044255584559784e-01  3.4984098282011789e-01  3.6881500567669273e-01  3.8738299014888306e-01  4.0556749128685216e-01  4.2333205366862464e-01  4.4073336616991715e-01  4.5769376425469976e-01  4.7427687421271136e-01  4.9043826234635013e-01  5.0619352161493780e-01  5.2151218169161173e-01  5.3642920997023458e-01  5.5091083401516805e-01  5.6493213604644343e-01  5.7855870271870347e-01  5.9168363529708623e-01  6.0440736563282838e-01  6.1668131123941083e-01  6.2846624152764452e-01  6.3977670386924523e-01  6.5059822309934101e-01  6.6098732180542563e-01  6.7083483084128670e-01  6.8022284308238901e-01  6.8909250116426224e-01  6.9745790946222175e-01  7.0529005611372653e-01  7.1262389121876635e-01  7.1941419223097436e-01  7.2566298998969214e-01  7.3136806062676285e-01  7.3653696739745389e-01  7.4114121363664376e-01  7.4516684802010336e-01  7.4863115917752887e-01  7.5148252573794017e-01  7.5377795326030472e-01  7.5544702631290361e-01  7.5655022745218159e-01  7.5698189871770638e-01  7.5681075946726606e-01  7.5600212396109323e-01  7.5456393458262994e-01  7.5246889050773302e-01  7.4969446093348913e-01  7.4625599722814262e-01  7.4213738146138342e-01  7.3729841960860021e-01  7.3177647332767970e-01  7.2553634714171367e-01  7.1854593028461022e-01  7.1079611651412222e-01  7.0226268545218773e-01  6.9302184416851853e-01  6.8294332725688012e-01  6.7205914970601177e-01  6.6027293056482106e-01  6.4768715536894494e-01  6.3418837535054384e-01  6.1976092970087360e-01  6.0439509793491175e-01  5.8806263671243919e-01  5.7071997001550190e-01  5.5231281062807802e-01  5.3277607464338250e-01  5.1206957246219853e-01  4.9004010983756990e-01  4.6671963218283641e-01  4.4192900025996884e-01  4.1566782826137277e-01  3.8759274975623792e-01  3.5731374250007730e-01  3.2511092433914829e-01  2.9006572797024138e-01  2.5147895342283977e-01  2.0859709495266543e-01  1.5886267895914916e-01  9.7403841697091945e-02  3.4823854505039025e+00  3.8570057999426233e+01  1.5707003475594437e+01  1.5751957129009522e+00  1.0512237696661359e+01  1.1252681828551256e+00  6.6296519782421557e+00  2.3522430638164288e+01  2.7735927511655653e+01  2.9264964827812743e+00  4.6401182943049353e+00  2.1466758140675815e+00  7.9966634293566330e-01  1.0407313458089538e+00  7.5530574122227762e+01  5.3301228847293984e+01  8.7078040005102864e+00  5.5079458742795340e-01  7.9168872972977837e+00  1.1102909457635068e+01  2.3199427637344787e+01  5.4908183901031698e+01  2.9437247311018254e+01  1.4222014686070403e+00  1.3210849401283870e+01  5.3812086345772885e+00  3.1763130720708888e+00  1.0581748029801463e+00  2.7979054135859773e+01  7.9271082113260827e-01  2.7704891553545366e+01  4.4823590736360241e+00  2.1872996417527966e+00  1.3775719585879536e+01  5.4476520107336297e+00  1.2074891864524758e+01  7.5439655296160857e-01  2.1096630011079620e+00  5.9508541769438517e-01  8.1773958767667509e-01  1.7016490110356994e+01  1.5482856445057022e+01  3.8278201284457779e+01  2.8546882933635636e+00  5.5938635966976705e+01  2.6220002957408424e+00  1.3843432779867046e+00  7.6160051586313060e+01  7.7526949607619713e+01  5.1161258349035450e+01  9.9627841615952761e+01  1.6371385497498768e+01  4.0759436661466228e+00  1.0559885361934136e+01  8.3248545032287191e-01  5.3575837116266181e+00  6.8351585189306752e+00  1.0966456474035506e+00  4.1184154395571682e+01  1.0019858949885977e+01  5.0909688752175022e+01  3.4521593091212935e+01  2.9155911171865845e-01  1.3913635570052570e+01  2.3056055181150022e+01  5.3131042331331191e-01  1.5869949123624794e+00  4.2854173200824747e-01  1.6561374827249393e+00  4.3360526531657495e+00  1.4861544582734314e+00  5.3011904483088230e+00  7.6485798175966639e+00  9.7923023577357586e+00  4.5269621127931259e-01  4.1427189137480568e+01  6.9834893156953601e+00  2.2045707401814784e+01  1.0974686921076029e+00  2.8442536741088105e+01  2.4079574217085611e+00  4.5268171997567359e+00  5.3030071746271098e+01  6.6359691264763470e+01  2.8437298234841526e+00  6.7598506780994971e-01  3.4424289293649479e-01  6.5000587594796031e+01  8.5447635510091402e+00  2.1214191659923074e+01  6.3770993250355250e+00  6.2632494441593833e-01  9.2393714268950589e+01  2.9788410117901421e+01  1.4919925779515802e+01  2.0702582204731055e+01  3.8762977159726044e+00  6.6311084940127031e+01  9.3536939996584451e+01  7.7469012712687482e+00  2.2986672326615731e+00  1.0729000091998449e+00  1.7803664370856175e+01  1.0494904556548525e+01  2.3743666107125833e+01  1.1506143176573334e+00  1.0400560738211830e+00  3.3233058143880903e+01  5.1752213061590320e+00  7.5795785023093187e-01  4.7409534357411598e-01  1.3225010244514204e+01  1.3596963249384375e+01  1.9084543099085199e+01  3.9650324364110141e+01  1.8675726685158853e+01  6.6044088261854461e-01  1.7064614079495835e+00  3.1636079631916072e+00  1.5871690554375550e+00  3.0646767594805944e+00  1.1831641425439535e+01  5.9516615659790064e+00  7.8087534493399735e-01  6.1882690229794213e-01  6.0592512264699350e+00  7.5111119299719742e-01  3.2690404389835798e+01  6.3481187014146805e+01  4.3617709562470260e+01  4.4905975917471686e+01  1.6303297693396439e+00  1.0456630862306315e+00  2.3113873569417662e+00  2.9351093149453664e+00  8.1525507936770603e-01  3.4618911480380788e+01  7.2487411950933600e+00  1.9283144524274938e+01  1.3404161718562676e+01  7.2899461213274563e-01  2.2110680879049450e+01  3.5155339570778857e+01  2.5872338628053058e+00  1.8552164014435557e+00  2.2637449977472546e+00  4.5118804906453867e+01  7.6060305339034189e+00  4.0600980057329190e+00  1.3950320412893362e+01  3.8149118806570376e-01  4.8358337334511418e+01  9.2173413254332326e-01  1.1410301918249854e+02  1.3821432857577147e+01  3.1303975763134218e+01  2.1802886539829347e-01  1.4274312696239673e+00  4.4748190505678966e+00  6.3782857228346970e+01  3.2954632583969357e+00  1.0357211025130770e+01  1.7736160650440642e+01  5.7446343124261308e+00  6.0302824222305551e+00  8.0692218218998946e+00  3.5190054715503050e+00  1.8619407402492605e+00  8.7364492047699926e+01  1.6525120698261326e+00  1.5302418298466214e+00  8.0834269571875595e+01  4.2337640426260137e+01  9.0750947247064815e+00  1.2712949644205157e+01  7.0732851121224150e-01  6.4316249499205995e+01  1.2306779643758258e+01  7.8381035341282015e+01  1.8040950564012672e+01  2.8503642687064767e-01  5.1655031433686226e+01  2.4253412714692313e+01  2.8682607905261509e+01  4.7212649359745022e+01  1.2433030746293290e