<?xml version="1.0"?>
<VTKFile type="UnstructuredGrid"  version="0.1"  >
<UnstructuredGrid>
<Piece  NumberOfPoints="329" NumberOfCells="591">
<Points>
<DataArray  type="Float64"  NumberOfComponents="3"  format="ascii">1 1 0  1 0 0  0 1 0  0.1 0 0  0 0.05 0  0 0.06287972744922905 0  0 0.07733101854263141 0  0 0.09354562955276843 0  0 0.1117387274652257 0  0 0.1321517167102699 0  0 0.1550554677812034 0  0 0.180753905378528 0  0 0.2095880154156652 0  0 0.2419404228079236 0  0 0.2782404219191014 0  0 0.3189696925575852 0  0 0.3646686840521894 0  0 0.4159437958321469 0  0 0.4734754197645336 0  0 0.5380269601229928 0  0 0.6104549840397083 0  0 0.6917205548749794 0  0 0.7829020268940308 0  0 0.8852093269103184 0  0.1249999999997738 1 0  0.2499999999994121 1 0  0.3749999999990476 1 0  0.499999999998694 1 0  0.6249999999990125 1 0  0.7499999999993416 1 0  0.8749999999996708 1 0  1 0.8749999999995011 0  1 0.7500000000003465 0  1 0.6250000000012137 0  1 0.5000000000020591 0  1 0.3750000000015605 0  1 0.2500000000010404 0  1 0.1250000000005203 0  0.8858668140054682 0 0  0.7847599782501582 0 0  0.6951928016501391 0 0  0.6158482189767517 0 0  0.5455594849979394 0 0  0.4832930359912455 0 0  0.4281332431078808 0 0  0.3792690195489327 0 0  0.3359818290399309 0 0  0.2976351453138421 0 0  0.2636650942991751 0 0  0.2335721510676335 0 0  0.2069138097881728 0 0  0.1832980729496208 0 0  0.1623776760112797 0 0  0.14384499012821 0 0  0.1274275009568929 0 0  0.1128837925540829 0 0  0.01095962714461596 0.04728118197092032 0  0.02177294498927405 0.04402886651664575 0  0.03241400047231467 0.04025085952476312 0  0.04285725397921011 0.03595622859598258 0  0.05307764064029129 0.03115528128095813 0  0.06305063048901315 0.02585954034109658 0  0.07275228733624464 0.02008171609282103 0  0.08215932621961379 0.01383567590150353 0  0.09124916928989955 0.00713641089829703 0  0.1414236082261961 0.1438023737016174 0  0.4817742768834378 0.4901278758291957 0  0.3624091025246281 0.2339594182574495 0  0.07268587903865573 0.1015981552344595 0  0.1201021155815482 0.05720118177218123 0  0.2420737366629467 0.4479847459292993 0  0.1682063636665927 0.2905455584298346 0  0.2486186226834043 0.1124338410220864 0  0.6163398171148563 0.259764042775916 0  0.2781804173130777 0.7216382284691502 0  0.09333431894645779 0.2257642191117944 0  0.6984245865386705 0.6984245865384632 0  0.341961414749992 0.1075994939682733 0  0.1694873839370323 0.05379458722869483 0  0.04364320191288235 0.0809120011483857 0  0.07644875726549999 0.06312950575057705 0  0.2180228772244665 0.2136433428137418 0  0.7114964573617789 0.468968133373519 0  0.5121857762971492 0.1585094687444923 0  0.063531486632888 0.1680380890257262 0  0.2717537023307885 0.306951180023368 0  0.1516048886082384 0.5742409720813505 0  0.09077154581711219 0.3899183526775666 0  0.4873712151981636 0.6931720185993807 0  0.09278401656915278 0.04004421275687188 0  0.4149590988341725 0.3680107782995087 0  0.7930770500119761 0.1799141184756466 0  0.07087994244077125 0.3063122898960334 0  0.3461990910081735 0.5600322692911036 0  0.03748895320269671 0.1148104878861113 0  0.2169086186584638 0.04757461598407452 0  0.2756150862433384 0.05574436910765968 0  0.4755759862676294 0.2644463526714684 0  0.145172278040319 0.09626894718364744 0  0.6341194774029034 0.1298479085747921 0  0.1368472256682334 0.02741275953172339 0  0.1084186408482724 0.02282530665554472 0  0.2949051577256208 0.1816556271870005 0  0.1039434838972989 0.08483138813024212 0  0.1490789473820267 0.8415842555519631 0  0.1961290065432183 0.09736743861710304 0  0.04502820928744796 0.05711461903344384 0  0.02328436100033807 0.06420544797413254 0  0.1547058967723819 0.2080411826446829 0  0.4411470119882192 0.09074077604960928 0  0.4177432614506957 0.1717030742484984 0  0.09575963926458665 0.4855854196039729 0  0.5585025007533995 0.3771675848208593 0  0.6026357534324536 0.5778670353167434 0  0.1933852222860492 0.1587701692281871 0  0.399129809652659 0.8281924141968294 0  0.5895172805431932 0.8316349685836363 0  0.8273521831845945 0.5820564238724116 0  0.8220715020704178 0.8245826797165611 0  0.1313281334244039 0.7046354775467695 0  0.8358506856818038 0.3608940839557382 0  0.09494240533679599 0.1348083667738246 0  0.06900796203942344 0.04579660127763759 0  0.04607492348775244 0.2083493856827786 0  0.1872244047247262 0.3758737753476276 0  0.3530628099881242 0.4760159558638177 0  0.1062571438171132 0.1849097269599367 0  0.03034770722945637 0.1513883357843671 0  0.2813916017124971 0.2502438987946499 0  0.3373239518072163 0.06086645997118829 0  0.01877314195663025 0.08605173244165149 0  0.7469053164039418 0.08150632294804246 0  0.05150292485312725 0.2655600654568913 0  0.06888943060833565 0.1415764905933624 0  0.1641362818907874 0.03014523345645643 0  0.3040052710637254 0.1122680926883269 0  0.1959828877549756 0.03001102354285314 0  0.2483890954351941 0.5570567756171005 0  0.5379278946297186 0.06790087513882785 0  0.2138321563228582 0.2821103505661405 0  0.71108372580164 0.3429127841257656 0  0.4049887747833427 0.0629636811476159 0  0.1412559172878682 0.05697066926279717 0  0.1213271056110565 0.1187120669314421 0  0.1498738401090223 0.4489557399551674 0  0.05704711703845864 0.3543728334179565 0  0.4516367697061881 0.5882798571162441 0  0.3498553664648259 0.3303358352123951 0  0.05900279122856872 0.07263497634316685 0  0.2502095602033647 0.1604393044132172 0  0.3131451783080064 0.3816628455499628 0  0.09814773003976245 0.05961615237458655 0  0.03152967256439272 0.0541082211510792 0  0.2760951606366254 0.8319190330533965 0  0.3570560746665467 0.1729072751577733 0  0.0380137563090058 0.1779584748309167 0  0.1336472668920574 0.2490495420021786 0  0.2124494813823772 0.6518353981532955 0  0.3784461338738937 0.6755874099655783 0  0.5652669022700264 0.4754041545693306 0  0.2486186226834043 0.02930858988788858 0  0.1700466279472565 0.1225318243315775 0  0.6984833211527072 0.2057899206666143 0  0.07829512028329129 0.5652908934853367 0  0.05323771314340691 0.4425592876034781 0  0.08500018631019478 0.02763176806080276 0  0.05330695578308499 0.04492264517840578 0  0.1084542846109734 0.342856735687323 0  0.7168051268361619 0.5729733889044812 0  0.8445827381937745 0.09194151623262946 0  0.6971305302784352 0.8926440191874504 0  0.8807333688527768 0.6972989797436387 0  0.5354536439725882 0.2289095495488153 0  0.0508357474723504 0.1000165502471106 0  0.8697398444229105 0.4746385439951171 0  0.2503378451432343 0.07776847304234821 0  0.1882244615279732 0.2403632858660698 0  0.02062159408084064 0.1100246861778571 0  0.1180469536080852 0.01245953890486963 0  0.06884753516447091 0.6541056651692166 0  0.6023115141373803 0.6827381625981285 0  0.127699075925267 0.0770947884988475 0  0.2430321846571018 0.385589478816338 0  0.1961592298124334 0.06892401223688115 0  0.402208520752956 0.2917630115639467 0  0.07558433324232315 0.082808243105159 0  0.2800134564173463 0.02290103630969939 0  0.07235745991014282 0.03234302487648833 0  0.09308261593598123 0.01914048023499861 0  0.593913488927329 0.06486788715697001 0  0.02069078143455648 0.1282563461598033 0  0.1722364718341907 0.08471819928200337 0  0.4818419130722847 0.3359669793644506 0  0.1356362455425514 0.01312580683935603 0  0.02876168261747034 0.2934586362831466 0  0.1900829022079782 0.5038764387809723 0  0.1039468620393869 0.01026028944895166 0  0.0591964511436588 0.05789257875908176 0  0.4094217345742713 0.5130463591341015 0  0.09653921695285628 0.1085693634556622 0  0.88827947191331 0.2865785712127037 0  0.07490321114459303 0.1969188020372516 0  0.6463888293687604 0.408022638254684 0  0.08862945679075419 0.2637444270539504 0  0.01153514212848912 0.05905646341990604 0  0.1096121399511713 0.03961650176327489 0  0.2068527449244062 0.3305256157765593 0  0.468122962354013 0.8977043072560462 0  0.2171030716412511 0.1289457366432923 0  0.5601194189081848 0.1183700548720741 0  0.4206507345782016 0.4453601947347229 0  0.4687603407755673 0.2002875251897743 0  0.1628423195390683 0.1704019771051777 0  0.2161836718869245 0.01984875640922074 0  0.5454908955823303 0.2990406213498741 0  0.6635015640089401 0.06999444687516854 0  0.0914820509982323 0.7776544117494042 0  0.3975707983793069 0.1166773386591882 0  0.04102721841729009 0.0464705146967349 0  0.3134113994667133 0.03479746878754319 0  0.2803101148901679 0.135501585589073 0  0.152223208316842 0.01743015126303164 0  0.4495728758264222 0.04600471546232188 0  0.08217136125538556 0.04929551605180845 0  0.2590469762902122 0.2038576108468041 0  0.4883984406226327 0.7908390497456591 0  0.01292315447352485 0.07314194310881816 0  0.02300949882112143 0.2257642191117944 0  0.1969829204692669 0.7574323953913307 0  0.2962821212605092 0.6356758734707194 0  0.04515029196788518 0.5057511899437631 0  0.03019699249279936 0.0952039059498514 0  0.3167321314298267 0.1455019562447321 0  0.7688843802474761 0.2752375551860122 0  0.03845940089290059 0.3925822047810962 0  0.45407863925757 0.1404052962455743 0  0.2809453300530503 0.4950735262781997 0  0.08475340229006161 0.9143124139227324 0  0.5263440395836503 0.551852267299189 0  0.4132394418969193 0.2235454872139094 0  0.5955052295375269 0.184580595035479 0  0.2767925964909495 0.09396097999012144 0  0.9092772142909843 0.1679992060290545 0  0.3513894777549163 0.7580224001297773 0  0.03571244021146038 0.06713950498249974 0  0.01605799665553939 0.1673217894029748 0  0.2048633878908532 0.9164683423406427 0  0.1222963227147425 0.2110564835545875 0  0.3613476250991887 0.03405167947958506 0  0.8993534378260273 0.8993534378259941 0  0.774206044813465 0.7340023619430565 0  0.06217550857912826 0.03624998768616253 0  0.06290905567396768 0.2310168530757435 0  0.1895455714563321 0.1953078096931506 0  0.6768789913940569 0.7789079162712138 0  0.1758996931635625 0.01803404032989985 0  0.1220472628441639 0.02680604319226458 0  0.1554067849725031 0.3368031546426042 0  0.02108709404077613 0.05448987125799451 0  0.3144418964804662 0.2225814608618223 0  0.3225712132242695 0.2712350319177189 0  0.920251196073848
[...]
<PointData  Scalars="f_2788"> 
<DataArray  type="Float64"  Name="f_2788"  format="ascii">1.3504707019865546e+02  0.0000000000000000e+00  0.0000000000000000e+00  0.0000000000000000e+00  0.0000000000000000e+00  0.0000000000000000e+00  0.0000000000000000e+00  0.0000000000000000e+00  0.0000000000000000e+00  0.0000000000000000e+00  0.0000000000000000e+00  0.0000000000000000e+00  0.0000000000000000e+00  0.0000000000000000e+00  0.0000000000000000e+00  0.0000000000000000e+00  0.0000000000000000e+00  0.0000000000000000e+00  0.0000000000000000e+00  0.0000000000000000e+00  0.0000000000000000e+00  0.0000000000000000e+00  0.0000000000000000e+00  0.0000000000000000e+00  3.1113328278596807e+01  5.1872179032166557e+01  6.8739001391266342e+01  8.3540049278949994e+01  9.7075738483878297e+01  1.0995345055824102e+02  1.2254309053452074e+02  1.2254287501313144e+02  1.0994897984627609e+02  9.7066930329549649e+01  8.3491734764651582e+01  6.8721312417541569e+01  5.1824577296549904e+01  3.1366686848245649e+01  0.0000000000000000e+00  0.0000000000000000e+00  0.0000000000000000e+00  0.0000000000000000e+00  0.0000000000000000e+00  0.0000000000000000e+00  0.0000000000000000e+00  0.0000000000000000e+00  0.0000000000000000e+00  0.0000000000000000e+00  0.0000000000000000e+00  0.0000000000000000e+00  0.0000000000000000e+00  0.0000000000000000e+00  0.0000000000000000e+00  0.0000000000000000e+00  0.0000000000000000e+00  0.0000000000000000e+00  2.2545821061789995e-01  4.0827600540988696e-01  5.5298610372046253e-01  6.6013999048373040e-01  7.2367526356171696e-01  7.3934447168858941e-01  6.9481438867508960e-01  5.8669239030853337e-01  3.8292038294639003e-01  3.4366734580341838e+00  3.8621260130506172e+01  1.4132066206407474e+01  1.3362434579694802e+00  1.2564700681364414e+00  1.8115546343219389e+01  8.1535651807748923e+00  4.6796509223966583e+00  2.7183965747023723e+01  3.4699176092674627e+01  3.5301592539225517e+00  7.5523601287666665e+01  6.1379380352454431e+00  1.5625898593343890e+00  7.2679063209920003e-01  1.0085099799720183e+00  7.7795478671956202e+00  5.4422457087281828e+01  1.3718458994425095e+01  1.8121641509715565e+00  1.3873567583609136e+01  1.4875284858926577e+01  5.9555935137560514e+00  5.4757235268002709e+01  8.3846843087739864e-01  2.5252847976486546e+01  2.6218857974172860e+01  3.6340545079034157e+00  3.2144342327484416e+01  7.7846514234594799e-01  1.7468361579140121e+00  2.5741601231942073e+00  2.1001477043579754e+01  2.3944523727991807e+00  1.4290186193868013e+01  6.8627001752978567e-01  5.4976431780644519e-01  8.9383144789855518e+00  1.5825948099170666e+00  2.4251577153051226e+01  3.2213083958380886e+00  6.7110477769870081e-01  3.8890291226280244e-01  5.3882864185135277e+00  6.7577729303086134e+00  1.2018485415272403e+01  7.8682846084258991e+00  3.4788733541111306e+01  5.5701132089248652e+01  5.1450128814868554e+00  5.6183600780320646e+01  7.7161203197147429e+01  7.5976421642682823e+01  9.9815528600190177e+01  1.6459831439642098e+01  5.2314819989817153e+01  2.2013099172644366e+00  8.2035399649284713e-01  1.6127113190696276e+00  1.1760956856993573e+01  2.7812064627884006e+01  3.3128282991190301e+00  7.8928235886902587e-01  1.1741690668860649e+01  3.4352700424873595e+00  3.3410361019099116e-01  1.1162421969471895e+01  2.2828143005457631e+00  1.6775615698350175e+00  8.6004427493782332e-01  5.7039750239915143e+00  9.9801991947967439e-01  2.3304334793102552e+01  6.2750642388628926e+00  1.0045043489625231e+01  4.1240544254359953e+01  4.2902823727626203e+00  1.4193620176084254e+00  2.4737550533314541e+00  1.1305431145198909e+01  3.3991449314021587e+00  4.3414712118299647e+01  1.9180515979903262e+01  8.9615178785150962e-01  6.7017083296657001e+00  1.9822166064529114e+01  1.1413197705185543e+00  5.0898966453630901e-01  4.1480120335045768e+01  1.0318130830016694e+01  1.1481302217775340e+00  5.5676892123458046e+00  2.3840482821154993e+01  4.2611779277418158e+01  4.3747494058163007e+01  1.2237516694377704e+00  3.5173672650067518e+00  2.5128870258754265e+01  7.5837165643922493e+00  3.9794422503127644e+00  6.9449680358105192e-01  7.2511856109181139e-01  6.2212868871616855e+00  6.5154920290833260e+01  1.5359484425787434e+01  9.3972796509079558e+01  9.2831934279196417e+01  2.0645944508506510e+01  9.4547613451736456e-01  6.8283713951706304e+01  3.2702226831795351e+00  7.5546865824974008e+00  4.2037880209905953e-01  3.0725747078590554e-01  7.9197738967852471e+00  6.4949949801883704e+01  1.7337553983088867e+00  1.5630080365600209e+01  2.2905985793403207e+00  1.9489974054606641e+01  1.1874036057603685e+00  1.0746459331991998e+00  7.5420684609824085e-01  5.4942152850186032e-01  6.6611187271220924e+00  4.6701746372728620e-01  2.4852067152252708e+00  2.6815886038845466e+01  3.3185226506104676e-01  1.4151604423684212e+00  1.6117390492974423e+01  2.8900060324192256e-01  8.1502576940269011e-01  3.4544108464526374e+01  1.8365498627785681e+00  4.6980009840827627e+01  2.4851766489762488e+00  4.3515242421932456e+01  3.9147404004387085e+00  2.0433064877569107e-01  8.7493383433147287e-01  1.1389834730989730e+01  7.0147856282754802e+01  4.6913009716628453e+00  1.1347618310954784e+01  3.0856377136098850e+01  1.5756584163040683e+01  4.6630697611471659e+00  7.2427765946328404e-01  2.7259199382968262e+01  8.2067549612462649e+00  1.3326887343568378e+01  7.7977597430752930e+00  6.2517682372534866e-01  1.8337798284174240e+00  6.3448829739806110e+00  4.7182815237815723e-01  3.4895193868506817e+00  9.1279085976167662e-01  8.8065867876631696e+00  6.2905783612881095e+01  2.2260482447829147e-01  8.6208888771752767e-01  2.6763127907158946e+01  3.1792825858628497e+01  3.8762721512445806e+00  5.5776402582688145e-01  7.7045030341284830e+00  3.7232243983423885e+01  2.5325298732958017e+00  1.0729580086134773e+01  2.3184799610259368e+01  1.7002467859873448e+01  4.7036381422782348e+01  1.5398564988244960e+01  1.8770687877775234e+01  4.3554736038059456e+00  3.1187562672118208e+01  4.5359755530619552e+01  5.7022478595740633e-01  4.5807428092885327e-01  3.7590009924664550e+01  4.3261122079710397e+00  2.0525063639507319e+00  1.1492637089526644e+02  8.6209563730824698e+01  7.5397693834152379e-01  2.4398068099436077e+00  6.1961834557920055e+00  8.1013381394950429e+01  5.4422247914499788e-01  6.4052012235972600e-01  8.7533653549083610e+00  3.6519553957609929e-01  1.1677288438749128e+01  1.4570085136981183e+01  8.3337525062657605e+01  6.3800295220392357e+01  1.2466080663867927e+00  3.0250064839516346e+00  2.4840913798185347e+00  5.4675704234704412e+01  3.3253241027438968e+01  7.9812496867786189e+00  4.0249885238948853e+00  5.2451626388326197e+01  3.1473383110925890e+00  3.9886055410720669e+00  3.4037251350966997e+01  1.2601115770025346e+00  1.0581309206319218e+00  1.5433070724977167e+01  2.9553562242781677e+00  3.3051676809515701e-01  1.0759134833443515e+02  1.0824306320857755e+02  7.7556894291369085e+00  1.6702317294159277e+00  6.9207800374024153e-01  5.3442153123550568e+01  1.5530271385308362e+01  5.3795160997531724e+01  7.7726217279865068e+01  1.9546856136000084e+00  5.9251332908790681e+00  1.7289178836293151e+00  1.0321826419410014e+00  9.7701078142197240e-01  9.9305373215691772e-01  4.7453485035568749e-01  3.2620252240252015e+01  6.6019288242066239e+00  1.4264039846018051e+00  8.4504528179503353e+01  2.1285463511439001e+01  1.7597301393092593e+00  9.8233965947653896e+00  6.2346135119085866e-01  2.4912604487819920e+01  6.3470153799329346e+01  1.5654480262680642e-01  9.3440054465249212e+00  2.0048333792709210e+00  7.8972972957702536e+00  8.0774309693375890e-01  6.5525958731631093e+01  1.5898916030535164e+00  7.3154652960434075e-01  3.4803698839823545e+00  6.7443788227153973e+01  5.2347425160435684e+01  2.4784223701892061e-01  8.1210788536641565e-01  4.1679373555180016e-01  1.3841151875200232e+01  4.6627128357866541e+00  1.8543867837705632e+00  1.1122824989742657e+00  1.4824957827658576e+00  1.3269927099897154e+00  1.1939919033242314e+01  2.2598839466484071e+00  1.7249260753602943e+01  9.8961984346817840e+00  </DataArray> 
</PointData> 
</Piece>
</UnstructuredGrid>
</VTKFile>