<?xml version="1.0"?>
<VTKFile type="UnstructuredGrid"  version="0.1"  >
<UnstructuredGrid>
<Piece  NumberOfPoints="27457" NumberOfCells="54268">
<Points>
<DataArray  type="Float64"  NumberOfComponents="3"  format="ascii">1 1 0  1 0 0  0 1 0  0.1 0 0  0 0.05 0  0 0.05122845360831804 0  0 0.05247120380176079 0  0 0.05372841695501402 0  0 0.05500026150888222 0  0 0.05628690801831129 0  0 0.05758852838275295 0  0 0.05890529691408671 0  0 0.06023738995522211 0  0 0.06158498589252134 0  0 0.06294826516639482 0  0 0.06432741028016105 0  0 0.06572260580725821 0  0 0.06713403839689337 0  0 0.06856189762028958 0  0 0.07000637392188919 0  0 0.07146766105263459 0  0 0.07294595545385259 0  0 0.07444145276329071 0  0 0.07595435572755767 0  0 0.07748486490719994 0  0 0.07903318731037468 0  0 0.08059952836324086 0  0 0.08218409800372904 0  0 0.08378710971557592 0  0 0.08540877676506251 0  0 0.08704931632558889 0  0 0.08870894915483368 0  0 0.0903878963389235 0  0 0.09208638367879514 0  0 0.09380463710606268 0  0 0.09554288809908837 0  0 0.09730136914057272 0  0 0.09908031447038111 0  0 0.1008799634102842 0  0 0.1027005572237485 0  0 0.1045423387608388 0  0 0.1064055548807513 0  0 0.1082904549842762 0  0 0.1101972914975654 0  0 0.1121263194087267 0  0 0.1140777978618432 0  0 0.1160519874983605 0  0 0.1180491524638201 0  0 0.1200695604057186 0  0 0.122113482261994 0  0 0.1241811908503368 0  0 0.1262729632624391 0  0 0.1283890798947253 0  0 0.1305298240262422 0  0 0.1326954819456261 0  0 0.1348863432758441 0  0 0.1371027026674777 0  0 0.1393448554656976 0  0 0.1416131021349107 0  0 0.1439077471682532 0  0 0.1462290971448559 0  0 0.1485774628467982 0  0 0.1509531587042392 0  0 0.1533565027704562 0  0 0.1557878171861148 0  0 0.1582474272840288 0  0 0.1607356621697438 0  0 0.1632528549623705 0  0 0.1657993426890345 0  0 0.1683754663266217 0  0 0.1709815709401678 0  0 0.1736180055393663 0  0 0.1762851228139485 0  0 0.1789832798346495 0  0 0.1817128382029542 0  0 0.1844741631889638 0  0 0.1872676241407711 0  0 0.1900935953175798 0  0 0.1929524551618977 0  0 0.1958445865129603 0  0 0.1987703762829806 0  0 0.2017302170081516 0  0 0.2047245040853408 0  0 0.207753637956253 0  0 0.2108180251572844 0  0 0.213918074000714 0  0 0.2170542029318014 0  0 0.220226830398656 0  0 0.2234363798980221 0  0 0.2266832823600635 0  0 0.2299679725257835 0  0 0.2332908890423809 0  0 0.2366524779809444 0  0 0.2400531899424344 0  0 0.2434934776333743 0  0 0.2469738043299475 0  0 0.2504946354149822 0  0 0.254056441367454 0  0 0.2576596998138591 0  0 0.2613048922981652 0  0 0.2649925075667702 0  0 0.2687230394026137 0  0 0.2724969873674931 0  0 0.2763148556869052 0  0 0.2801771574004618 0  0 0.2840844072916186 0  0 0.2880371308305292 0  0 0.2920358554492154 0  0 0.2960811164340635 0  0 0.3001734580304584 0  0 0.3043134240595089 0  0 0.3085015725625463 0  0 0.3127384622086586 0  0 0.3170246603249418 0  0 0.3213607407509564 0  0 0.3257472858987104 0  0 0.3301848801863515 0  0 0.33467412004237 0  0 0.3392156044241151 0  0 0.3438099433294173 0  0 0.3484577512878585 0  0 0.353159650080984 0  0 0.3579162693840366 0  0 0.3627282460921905 0  0 0.3675962244558005 0  0 0.3725208562044943 0  0 0.3775028006605872 0  0 0.3825427248422815 0  0 0.3876413035571014 0  0 0.3927992194860054 0  0 0.3980171632585973 0  0 0.4032958335198583 0  0 0.4086359369887916 0  0 0.4140381885093747 0  0 0.4195033110941946 0  0 0.425032035961125 0  0 0.4306251051964314 0  0 0.4362832651977659 0  0 0.4420072760656402 0  0 0.4477979023306188 0  0 0.4536559196711149 0  0 0.459582112962027 0  0 0.4655772765464282 0  0 0.471642207993667 0  0 0.4777777256430162 0  0 0.4839846481812909 0  0 0.4902638064650609 0  0 0.4966160402627527 0  0 0.5030422025758937 0  0 0.5095431516456798 0  0 0.5161197593603114 0  0 0.5227729040786778 0  0 0.529503478651147 0  0 0.5363123850451601 0  0 0.5432005298765519 0  0 0.5501688408657173 0  0 0.5572182503443972 0  0 0.5643497002269494 0  0 0.5715641453300782 0  0 0.5788625516465917 0  0 0.5862458952746765 0  0 0.5937151689156246 0  0 0.6012713680128323 0  0 0.6089155066718391 0  0 0.6166486071274221 0  0 0.6244717052442426 0  0 0.6323858469698163 0  0 0.6403920954496736 0  0 0.6484915206746714 0  0 0.6566852076765086 0  0 0.6649742490815893 0  0 0.6733597622238869 0  0 0.6818428641604672 0  0 0.6904246920005918 0  0 0.6991063947738093 0  0 0.7078891339073494 0  0 0.7167740889269379 0  0 0.7257624452625111 0  0 0.7348554089414197 0  0 0.7440541942093895 0  0 0.7533600370711606 0  0 0.7627741810181882 0  0 0.7722978860505116 0  0 0.7819324275816147 0  0 0.7916790956824162 0  0 0.80153919533056 0  0 0.811514046638366 0  0 0.8216049850603495 0  0 0.8318133615812159 0  0 0.8421405428852038 0  0 0.8525879115076366 0  0 0.8631568659694967 0  0 0.8738488234783863 0  0 0.8846652135541528 0  0 0.8956074831740467 0  0 0.9066770996322058 0  0 0.917875543445472 0  0 0.9292043156130901 0  0 0.9406649308929571 0  0 0.9522589246964699 0  0 0.9639878494206804 0  0 0.9758532758281114 0  0 0.9878567942118178 0  0.01219512195119648 1 0  0.02439024390239303 1 0  0.0365853658535877 1 0  0.04878048780478032 1 0  0.06097560975597382 1 0  0.07317073170717255 1 0  0.0853658536583734 1 0  0.09756097560957427 1 0  0.1097560975607752 1 0  0.1219512195119744 1 0  0.1341463414631642 1 0  0.1463414634143481 1 0  0.1585365853655321 1 0  0.170731707316716 1 0  0.1829268292678999 1 0  0.1951219512190839 1 0  0.2073170731702679 1 0  0.2195121951214518 1 0  0.2317073170726358 1 0  0.2439024390238198 1 0  0.2560975609750037 1 0  0.2682926829261877 1 0  0.2804878048773716 1 0  0.2926829268285556 1 0  0.3048780487797396 1 0  0.3170731707309236 1 0  0.3292682926821075 1 0  0.3414634146332915 1 0  0.3536585365844754 1 0  0.3658536585356594 1 0  0.3780487804868434 1 0  0.3902439024380274 1 0  0.4024390243892113 1 0  0.4146341463403953 1 0  0.4268292682915792 1 0  0.4390243902427632 1 0  0.4512195121939472 1 0  0.4634146341451311 1 0  0.4756097560963151 1 0  0.4878048780474991 1 0  0.4999999999986938 1 0  0.5121951219499347 1 0  0.5243902439011863 1 0  0.536585365852438 1 0  0.5487804878036896 1 0  0.5609756097549412 1 0  0.5731707317061928 1 0  0.5853658536574444 1 0  0.5975609756086961 1 0  0.6097560975599478 1 0  0.6219512195111994 1 0  0.634146341462451 1 0  0.6463414634137026 1 0  0.6585365853649542 1 0  0.6707317073162059 1 0  0.6829268292674575 1 0  0.6951219512187091 1 0  0.7073170731699607 1 0  0.7195121951212123 1 0  0.7317073170724641 1 0  0.7439024390237157 1 0  0.7560975609749673 1 0  0.7682926829262189 1 0  0.7804878048774705 1 0  0.7926829268287222 1 0  0.8048780487799739 1 0  0.8170731707312255 1 0  0.8292682926824771 1 0  0.8414634146337288 1 0  0.8536585365849804 1 0  0.8658536585362321 1 0  0.8780487804874837 1 0  0.8902439024387353 1 0  0.9024390243899869 1 0  0.9146341463412385 1 0  0.9268292682924902 1 0  0.9390243902437418 1 0  0.9512195121949935 1 0  0.9634146341462451 1 0  0.9756097560974967 1 0  0.9878048780487484 1 0  1 0.9878048780487297 0  1 0.9756097560974595 0  1 0.9634146341461891 0  1 0.9512195121949188 0  1 0.9390243902436486 0  1 0.9268292682923782 0  1 0.914634146341108 0  1 0.9024390243898377 0  1 0.8902439024385674 0  1 0.8780487804873104 0  1 0.8658536585361284 0  1 0.8536585365849935 0  1 0.8414634146338587 0  1 0.8292682926827237 0  1 0.8170731707315888 0  1 0.804878048780454 0  1 0.7926829268293191 0  1 0.7804878048781843 0  1 0.7682926829270493 0  1 0.7560975609759144 0  1 0.7439024390247795 0  1 0.7317073170736447 0  1 0.7195121951225099 0  1 0.7073170731713749 0  1 0.69512195122024 0  1 0.6829268292691051 0  1 0.6707317073179703 0  1 0.6585365853668355 0  1 0.6463414634157005 0  1 0.6341463414645656 0  1 0.6219512195134307 0  1 0.6097560975622959 0  1 0.5975609756111609 0  1 0.585365853660026 0  1 0.573170731708891 0  1 0.5609756097577561 0  1 0.5487804878066211 0  1 0.5365853658554862 0  1 0.5243902439043513 0  1 0.5121951219532164 0  1 0.5000000000020597 0  1 0.4878048780508111 0  1 0.4756097560995408 0  1 0.4634146341482706 0  1 0.4512195121970003 0  1 0.4390243902457299 0  1 0.4268292682944597 0  1 0.4146341463431894 0  1 0.4024390243919191 0  1 0.3902439024406489 0  1 0.3780487804893786 0  1 0.3658536585381084 0  1 0.353658536586838 0  1 0.3414634146355677 0  1 0.3292682926842975 0  1 0.3170731707330272 0  1 0.304878048781757 0  1 0.2926829268304867 0  1 0.2804878048792164 0  1 0.2682926829279461 0  1 0.2560975609766758 0  1 0.2439024390254055 0  1 0.2317073170741353 0  1 0.219512195122865 0  1 0.2073170731715948 0  1 0.1951219512203245 0  1 0.1829268292690541 0  1 0.1707317073177839 0  1 0.1585365853665136 0  1 0.1463414634152433 0  1 0.1341463414639731 0  1 0.1219512195127028 0  1 0.1097560975614326 0  1 0.09756097561016219 0  1 0.08536585365889193 0  1 0.07317073170762167 0  1 0.06097560975635141 0  1 0.04878048780508115 0  1 0.03658536585381089 0  1 0.02439024390254063 0  1 0.01219512195127026 0  0.9878269118047402 0 0  0.9758019988479677 0 0  0.9639234704352486 0 0  0.9521895365196386 0 0  0.9405984441069362 0 0  0.9291484498877155 0 0  0.9178378385976085 0 0  0.9066649130402594 0 0  0.8956279941968361 0 0  0.8847254314974992 0 0  0.8739555856640273 0 0  0.863316841405533 0 0  0.8528076047209598 0 0  0.8424262976807974 0 0  0.8321713633838692 0 0  0.8220412624313828 0 0  0.8120344763416212 0 0  0.8021495043887624 0 0  0.792384863572081 0 0  0.7827390885713177 0 0  0.7732107316873978 0 0  0.763798363403096 0 0  0.7545005756683687 0 0  0.74531596848517 0 0  0.7362431672544074 0 0  0.7272808103552764 0 0  0.7184275512448828 0 0  0.7096820666569056 0 0  0.7010430392098833 0 0  0.6925091762127845 0 0  0.6840791978852176 0 0  0.6757518374102995 0 0  0.667525846333855 0 0  0.6593999912506326 0 0  0.6513730534342637 0 0  0.6434438284362458 0 0  0.6356111256526064 0 0  0.62787377123328 0 0  0.6202306052036685 0 0  0.612680480311542 0 0  0.605222263031973 0 0  0.5978548356700402 0 0  0.590577092378424 0 0  0.5833879404868862 0 0  0.5762863053458102 0 0  0.569271118
[...]
<PointData  Scalars="f_55"> 
<DataArray  type="Float64"  Name="f_55"  format="ascii">1.0799220881461356e+02  0.0000000000000000e+00  0.0000000000000000e+00  0.0000000000000000e+00  0.0000000000000000e+00  0.0000000000000000e+00  0.0000000000000000e+00  0.0000000000000000e+00  0.0000000000000000e+00  0.0000000000000000e+00  0.0000000000000000e+00  0.0000000000000000e+00  0.0000000000000000e+00  0.0000000000000000e+00  0.0000000000000000e+00  0.0000000000000000e+00  0.0000000000000000e+00  0.0000000000000000e+00  0.0000000000000000e+00  0.0000000000000000e+00  0.0000000000000000e+00  0.0000000000000000e+00  0.0000000000000000e+00  0.0000000000000000e+00  0.0000000000000000e+00  0.0000000000000000e+00  0.0000000000000000e+00  0.0000000000000000e+00  0.0000000000000000e+00  0.0000000000000000e+00  0.0000000000000000e+00  0.0000000000000000e+00  0.0000000000000000e+00  0.0000000000000000e+00  0.0000000000000000e+00  0.0000000000000000e+00  0.0000000000000000e+00  0.0000000000000000e+00  0.0000000000000000e+00  0.0000000000000000e+00  0.0000000000000000e+00  0.0000000000000000e+00  0.0000000000000000e+00  0.0000000000000000e+00  0.0000000000000000e+00  0.0000000000000000e+00  0.0000000000000000e+00  0.0000000000000000e+00  0.0000000000000000e+00  0.0000000000000000e+00  0.0000000000000000e+00  0.0000000000000000e+00  0.0000000000000000e+00  0.0000000000000000e+00  0.0000000000000000e+00  0.0000000000000000e+00  0.0000000000000000e+00  0.0000000000000000e+00  0.0000000000000000e+00  0.0000000000000000e+00  0.0000000000000000e+00  0.0000000000000000e+00  0.0000000000000000e+00  0.0000000000000000e+00  0.0000000000000000e+00  0.0000000000000000e+00  0.0000000000000000e+00  0.0000000000000000e+00  0.0000000000000000e+00  0.0000000000000000e+00  0.0000000000000000e+00  0.0000000000000000e+00  0.0000000000000000e+00  0.0000000000000000e+00  0.0000000000000000e+00  0.0000000000000000e+00  0.0000000000000000e+00  0.0000000000000000e+00  0.0000000000000000e+00  0.0000000000000000e+00  0.0000000000000000e+00  0.0000000000000000e+00  0.0000000000000000e+00  0.0000000000000000e+00  0.0000000000000000e+00  0.0000000000000000e+00  0.0000000000000000e+00  0.0000000000000000e+00  0.0000000000000000e+00  0.0000000000000000e+00  0.0000000000000000e+00  0.0000000000000000e+00  0.0000000000000000e+00  0.0000000000000000e+00  0.0000000000000000e+00  0.0000000000000000e+00  0.0000000000000000e+00  0.0000000000000000e+00  0.0000000000000000e+00  0.0000000000000000e+00  0.0000000000000000e+00  0.0000000000000000e+00  0.0000000000000000e+00  0.0000000000000000e+00  0.0000000000000000e+00  0.0000000000000000e+00  0.0000000000000000e+00  0.0000000000000000e+00  0.0000000000000000e+00  0.0000000000000000e+00  0.0000000000000000e+00  0.0000000000000000e+00  0.0000000000000000e+00  0.0000000000000000e+00  0.0000000000000000e+00  0.0000000000000000e+00  0.0000000000000000e+00  0.0000000000000000e+00  0.0000000000000000e+00  0.0000000000000000e+00  0.0000000000000000e+00  0.0000000000000000e+00  0.0000000000000000e+00  0.0000000000000000e+00  0.0000000000000000e+00  0.0000000000000000e+00  0.0000000000000000e+00  0.0000000000000000e+00  0.0000000000000000e+00  0.0000000000000000e+00  0.0000000000000000e+00  0.0000000000000000e+00  0.0000000000000000e+00  0.0000000000000000e+00  0.0000000000000000e+00  0.0000000000000000e+00  0.0000000000000000e+00  0.0000000000000000e+00  0.0000000000000000e+00  0.0000000000000000e+00  0.0000000000000000e+00  0.0000000000000000e+00  0.0000000000000000e+00  0.0000000000000000e+00  0.0000000000000000e+00  0.0000000000000000e+00  0.0000000000000000e+00  0.0000000000000000e+00  0.0000000000000000e+00  0.0000000000000000e+00  0.0000000000000000e+00  0.0000000000000000e+00  0.0000000000000000e+00  0.0000000000000000e+00  0.0000000000000000e+00  0.0000000000000000e+00  0.0000000000000000e+00  0.0000000000000000e+00  0.0000000000000000e+00  0.0000000000000000e+00  0.0000000000000000e+00  0.0000000000000000e+00  0.0000000000000000e+00  0.0000000000000000e+00  0.0000000000000000e+00  0.0000000000000000e+00  0.0000000000000000e+00  0.0000000000000000e+00  0.0000000000000000e+00  0.0000000000000000e+00  0.0000000000000000e+00  0.0000000000000000e+00  0.0000000000000000e+00  0.0000000000000000e+00  0.0000000000000000e+00  0.0000000000000000e+00  0.0000000000000000e+00  0.0000000000000000e+00  0.0000000000000000e+00  0.0000000000000000e+00  0.0000000000000000e+00  0.0000000000000000e+00  0.0000000000000000e+00  0.0000000000000000e+00  0.0000000000000000e+00  0.0000000000000000e+00  0.0000000000000000e+00  0.0000000000000000e+00  0.0000000000000000e+00  0.0000000000000000e+00  0.0000000000000000e+00  0.0000000000000000e+00  0.0000000000000000e+00  0.0000000000000000e+00  0.0000000000000000e+00  0.0000000000000000e+00  0.0000000000000000e+00  0.0000000000000000e+00  0.0000000000000000e+00  0.0000000000000000e+00  0.0000000000000000e+00  0.0000000000000000e+00  0.0000000000000000e+00  4.2962976278809322e+00  7.6119853698025954e+00  1.0490174830722363e+01  1.3119403926032255e+01  1.5543538446481245e+01  1.7819560727212288e+01  1.9960250414834089e+01  2.1991392955716169e+01  2.3929017793192244e+01  2.5790490045931790e+01  2.7571840731086390e+01  2.9290073618042143e+01  3.0947988255780668e+01  3.2552005633006743e+01  3.4104843742913033e+01  3.5613305455899983e+01  3.7079669692790347e+01  3.8507529119193556e+01  3.9898013501991592e+01  4.1255572309154715e+01  4.2580765809358297e+01  4.3876148835627014e+01  4.5148087801839580e+01  4.6390654371467797e+01  4.7612683867397081e+01  4.8811938961615752e+01  4.9990063892201007e+01  5.1149056239452250e+01  5.2289479714799278e+01  5.3416247921940943e+01  5.4523856074967263e+01  5.5619794315681801e+01  5.6701468542426753e+01  5.7769238266494717e+01  5.8829587379157068e+01  5.9876550341729008e+01  6.0914401283999140e+01  6.1943505656347725e+01  6.2964570748758788e+01  6.3980118354849090e+01  6.4988457286301298e+01  6.5990859199734544e+01  6.6987904410279285e+01  6.7981811544089695e+01  6.8972833615789710e+01  6.9958210109903035e+01  7.0944366155803465e+01  7.1927935209275688e+01  7.2910036474058259e+01  7.3891897130788678e+01  7.4873912890886686e+01  7.5856306025261901e+01  7.6840876941438978e+01  7.7826300443604225e+01  7.8814845757718274e+01  7.9805006986782004e+01  8.0799038252641182e+01  8.1797109758820113e+01  8.2799082017431871e+01  8.3805316797781316e+01  8.4818575649296449e+01  8.5836009400850202e+01  8.6859766110161814e+01  8.7889069967566527e+01  8.8926925357598719e+01  8.9971042670640699e+01  9.1024006034917335e+01  9.2084652478726881e+01  9.3152168466592059e+01  9.4230779501851316e+01  9.5318106317574276e+01  9.6415068328273051e+01  9.7521451501029290e+01  9.8638986806200805e+01  9.9766664954213795e+01  1.0090681299648723e+02  1.0205720343038745e+02  1.0321960370928879e+02  1.0439416726958348e+02  1.0558129791935193e+02  1.0678144986582355e+02  1.0678146614937947e+02  1.0558133168063370e+02  1.0439427585323614e+02  1.0321871274342074e+02  1.0205772294758692e+02  1.0090663882264306e+02  9.9767412674089528e+01  9.8639158802760747e+01  9.7521673798236236e+01  9.6415038880317383e+01  9.5317475843648722e+01  9.4231952837315276e+01  9.3151824063672720e+01  9.2083875456699360e+01  9.1023664112490550e+01  8.9970182745495578e+01  8.8927175228333894e+01  8.7890116201259502e+01  8.6859627752579073e+01  8.5836016687318093e+01  8.4818399600974615e+01  8.3806050126815578e+01  8.2799200951945139e+01  8.1797021962474673e+01  8.0799003255593917e+01  7.9804900960263652e+01  7.8814451685197739e+01  7.7826980896831870e+01  7.6840860253407200e+01  7.5856173591818120e+01  7.4874046460260857e+01  7.3891730429477590e+01  7.2910072872800896e+01  7.1927933673825507e+01  7.0944581803238506e+01  6.9958172360289282e+01  6.8972512137779887e+01  6.7981267469993554e+01  6.6988721707713921e+01  6.5989589188847489e+01  6.4988380455303499e+01  6.3979672785744683e+01  6.2964744186374404e+01  6.1944093048210647e+01  6.0915097740491099e+01  5.9876593299153917e+01  5.8827841454932418e+01  5.7770886517718772e+01  5.6701455628276975e+01  5.5619066286030190e+01  5.4524391817656799e+01  5.3415164473573171e+01  5.2290322086658357e+01  5.1149896500911616e+01  4.9990285735932069e+01  4.8812121369806178e+01  4.7613217532599691e+01  4.6390393611129966e+01  4.5147137262749091e+01  4.3877992783289685e+01  4.2580313830014013e+01  4.1254856056550331e+01  3.9897836503253004e+01  3.8507253213792168e+01  3.7078777770356567e+01  3.5614144709313955e+01  3.4103860083894382e+01  3.2551894326382907e+01  3.0947746468639192e+01  2.9285994013016385e+01  2.7573946694288374e+01  2.5789065910143133e+01  2.3933429136699459e+01  2.1984695088427134e+01  1.9957640806886051e+01  1.7811176115426562e+01  1.5544485608795982e+01  1.3124278607845852e+01  1.0491103109402069e+01  7.6094573506246483e+00  4.3112693675958678e+00  0.0000000000000000e+00  0.0000000000000000e+00  0.0000000000000000e+00  0.0000000000000000e+00  0.0000000000000000e+00  0.0000000000000000e+00  0.0000000000000000e+00  0.0000000000000000e+00  0.0000000000000000e+00  0.0000000000000000e+00  0.0000000000000000e+00  0.0000000000000000e+00  0.0000000000000000e+00  0.0000000000000000e+00  0.0000000000000000e+00  0.0000000000000000e+00  0.0000000000000000e+00  0.0000000000000000e+00  0.0000000000000000e+00  0.0000000000000000e+00  0.0000000000000000e+00  0.0000000000000000e+00  0.0000000000000000e+00  0.0000000000000000e+00  0.0000000000000000e+00  0.0000000000000000e+00  0.0000000000000000e+00  0.0000000000000000e+00  0.0000000000000000e+00  0.0000000000000000e+00  0.0000000000000000e+00  0.0000000000000000e+00  0.0000000000000000e+00  0.0000000000000000e+00  0.0000000000000000e+00  0.0000000000000000e+00  0.0000000000000000e+00  0.0000000000000000e+00  0.0000000000000000e+00  0.0000000000000000e+00  0.0000000000000000e+00  0.0000000000000000e+00  0.0000000000000000e+00  0.0000000000000000e+00  0.0000000000000000e+00  0.0000000000000000e+00  0.0000000000000000e+00  0.0000000000000000e+00  0.0000000000000000e+00  0.0000000000000000e+00  0.0000000000000000e+00  0.0000000000000000e+00  0.0000000000000000e+00  0.0000000000000000e+00  0.0000000000000000e+00  0.0000000000000000e+00  0.0000000000000000e+00  0.0000000000000000e+00  0.0000000000000000e+00  0.0000000000000000e+00  0.0000000000000000e+00  0.0000000000000000e+00  0.0000000000000000e+00  0.0000000000000000e+00  0.0000000000000000e+00  0.0000000000000000e+00  0.0000000000000000e+00  0.0000000000000000e+00  0.0000000000000000e+00  0.0000000000000000e+00  0.0000000000000000e+00  0.0000000000000000e+00  0.0000000000000000e+00  0.0000000000000000e+00  0.0000000000000000e+00  0.0000000000000000e+00  0.0000000000000000e+00  0.0000000000000000e+00  0.0000000000000000e+00  0.0000000000000000e+00  0.0000000000000000e+00  0.0000000000000000e+00  0.0000000000000000e+00  0.0000000000000000e+00  0.0000000000000000e+00  0.0000000000000000e+00  0.0000000000000000e+00  0.0000000000000000e+00  0.0000000000000000e+00  0.0000000000000000e+00  0.0000000000000000e+00  0.0000000000000000e+00  0.0000000000000000e+00  0.0000000000000000e+00  0.0000000000000000e+00  0.0000000000000000e+00  0.0000000000000000e+00  0.0000000000000000e+00  0.0000000000000000e+00  0.0000000000000000e+00  0.0000000000000000e+00  0.0000000000000000e+00  0.0000000000000000e+00  0.0000000000000000e+00  0.0000000000000000e+00  0.0000000000000000e+00  0.0000000000000000e+00  0.0000000000000000e+00  0.0000000000000000e+00  0.0000000000000000e+00  0.0000000000000000e+00  0.0000000000000000e+00  0.0000000000000000e+00  0.0000000000000000e+00  0.0000000000000000e+00  0.0000000000000000e+00  0.0000000000000000e+00  0.0000000000000000e+00  0.0000000000000000e+00  0.0000000000000000e+00  0.0000000000000000e+00  0.0000000000000000e+00  0.0000000000000000e+00  0.0000000000000000e+00  0.0000000000000000e+00  0.0000000000000000e+00  0.0000000000000000e+00  0.0000000000000000e+00  0.0000000000000000e+00  0.0000000000000000e+00  0.0000000000000000e+00  0.0000000000000000e+00  0.0000000000000000e+00  0.0000000000000000e+00  0.0000000000000000e+00  0.0000000000000000e+00  0.0000000000000000e+00  0.0000000000000000e+00  0.0000000000000000e+00  0.0000000000000000e+00  0.0000000000000000e+00  0.0000000000000000e+00  0.0000000000000000e+00  0.0000000000000000e+00  0.0000000000000000e+00  0.0000000000000000e+00  0.0000000000000000e+00  0.0000000000000000e+00  0.0000000000000000e+00  0.0000000000000000e+00  0.0000000000000000e+00  0.0000000000000000e+00  0.0000000000000000e+00  0.0000000000000000e+00  0.0000000000000000e+00  0.0000000000000000e+00  0.0000000000000000e+00  0.0000000000000000e+00  0.0000000000000000e+00  0.0000000000000000e+00  0.0000000000000000e+00  0.0000000000000000e+00  0.0000000000000000e+00  0.0000000000000000e+00  0.0000000000000000e+00  0.0000000000000000e+00  0.0000000000000000e+00  0.0000000000000000e+00  0.0000000000000000e+00  0.0000000000000000e+00  0.0000000000000000e+00  0.0000000000000000e+00  0.0000000000000000e+00  0.0000000000000000e+00  0.0000000000000000e+00  0.0000000000000000e+00  0.0000000000000000e+00  0.0000000000000000e+00  0.0000000000000000e+00  0.0000000000000000e+00  0.0000000000000000e+00  0.0000000000000000e+00  0.0000000000000000e+00  0.0000000000000000e+00  0.0000000000000000e+00  0.0000000000000000e+00  0.0000000000000000e+00  2.1722492218391364e-02  4.0280992022738576e-02  5.7578733097059756e-02  7.4052567548115997e-02  9.0026782341069353e-02  1.0554053142947330e-01  1.2064447616380998e-01  1.3538483471220136e-01  1.4981978278209745e-01  1.6396309559080996e-01  1.7779928166193143e-01  1.9134593275124925e-01  2.0463201148443805e-01  2.1763918074369884e-01  2.3041567536468993e-01  2.4291268074742894e-01  2.5514233485887544e-01  2.6711949670423546e-01  2.7882016317141400e-01  2.9028171957748028e-01  3.0145294292838770e-01  3.1237585260282774e-01  3.2302112093134061e-01  3.3339903121789538e-01  3.4348951389000681e-01  3.5331565306826646e-01  3.6285515850969885e-01  3.7209162205027219e-01  3.8106831604558195e-01  3.8971470301362293e-01  3.9809716346206142e-01  4.0618350764584782e-01  4.1394793295515736e-01  4.2140002998878434e-01  4.2853022237571142e-01  4.3537592067762931e-01  4.4186498445495836e-01  4.4805169469647799e-01  4.5389712606121030e-01  4.5941062080761419e-01  4.6457305510642594e-01  4.6940748260317178e-01  4.7388408551170658e-01  4.7800418013116469e-01  4.8176632131915098e-01  4.8517550058107967e-01  4.8821290267266321e-01  4.9086932645611653e-01  4.9315617305432247e-01  4.9503938539838793e-01  4.9655658004255265e-01  4.9766128276980615e-01  4.9839345832434967e-01  4.9868329498532821e-01  4.9857616620539147e-01  4.9804918871216375e-01  4.9710758936966026e-01  4.9573334114991030e-01  4.9391157396555618e-01  4.9165240625630602e-01  4.8894519374156731e-01  4.8576341248782728e-01  4.8213169767244407e-01  4.7802682834336391e-01  4.7342758787406614e-01  4.6832797079413124e-01  4.6271190396192180e-01  4.5662984626605452e-01  4.4999567905399523e-01  4.4283054536863786e-01  4.3507083179990730e-01  4.2678415285634519e-01  4.1789565241848253e-01  4.0839499862663825e-01  3.9827573064278537e-01  3.8751924866109655e-01  3.7609675207565080e-01  3.6397245368189873e-01  3.5110337891321353e-01  3.3746303841940883e-01  3.2295033494113834e-01  3.0758640962538725e-01  2.9125304677398189e-01  2.7395003979820481e-01  2.5545093530893953e-01  2.3549849699267816e-01  2.1427762529288957e-01  1.9118254004915428e-01  1.6575236834830195e-01  1.3749040040143207e-01  1.0471085278246542e-01  6.4202334211196532e-02  2.3069290005167531e+00  2.6874037089024778e+01  1.0630799486085598e+01  1.0403393012253002e+00  7.0635956665925139e+00  7.4236293629889960e-01  4.4292993377116536e+00  1.6394459198860414e+01  1.9615688331100984e+01  1.9414090004804347e+00  3.0886231458763533e+00  1.4208773942806709e+00  5.2751045268172958e-01  6.8620125823591060e-01  5.5235158753314927e+01  3.8646278971473571e+01  5.8989887986677152e+00  3.6297782000324380e-01  5.2821107804693312e+00  7.5813075140476744e+00  1.5851597094264623e+01  3.9619441550199980e+01  2.1805219877250067e+01  9.4082707087799877e-01  9.1740397545570112e+00  3.6112951985436217e+00  2.1170042911816287e+00  6.9898150048915986e-01  2.0980100376078685e+01  5.2235054451613994e-01  1.9129417620314221e+01  3.0104011831629243e+00  1.4521082760138404e+00  9.2733907190131717e+00  3.6225573483974265e+00  8.4442398813117325e+00  4.9827411359954638e-01  1.3942089179092918e+00  3.9254006704118238e-01  5.3902269103862921e-01  1.1655264343313197e+01  1.1127899831598752e+01  2.6913689056740594e+01  1.9040085427388280e+00  3.9919681063904314e+01  1.7356828149097041e+00  9.1774367632140064e-01  5.6485041268883982e+01  5.7558706512502781e+01  3.8223331548844243e+01  7.5380286822156080e+01  1.1132739116785848e+01  2.7048207581993471e+00  7.0812445531445896e+00  5.4855168134909205e-01  3.6294368623201150e+00  4.6812655722282468e+00  7.2558702710757106e-01  2.9000496906928284e+01  6.7442022292314423e+00  3.8267940776091095e+01  2.4719557967311751e+01  1.9206367407865763e-01  1.0050577580232373e+01  1.5739219785285419e+01  3.4999700982814608e-01  1.0549108085483614e+00  2.8254986062904308e-01  1.0940803334339559e+00  2.9344589311314291e+00  9.8091062153197361e-01  3.5223652734950628e+00  5.1084204002130589e+00  6.6162764853406459e+00  2.9871575473401391e-01  2.9743476644155120e+01  4.8100725748059849e+00  1.7119620471089604e+01  7.2396021382205100e-01  1.9686158720142831e+01  1.6102848813846389e+00  3.0131802623351747e+00  3.7717856137000332e+01  4.9698811306693678e+01  1.8824091426374747e+00  4.4696419605120113e-01  2.2692079533335990e-01  4.8297294251079741e+01  6.0197391639525941e+00  1.5069267421314780e+01  4.2644263613901341e+00  4.1282502143014255e-01  6.9602863659529902e+01  2.0512974479299775e+01  1.0078874480954834e+01  1.4145362160830688e+01  2.5716349155857769e+00  4.8106470165472963e+01  7.0555926576741911e+01  5.1718947724704520e+00  1.5198558394440931e+00  7.1109009961528513e-01  1.2239041436314517e+01  7.0328268114171841e+00  1.6482644244856694e+01  7.5975008778346920e-01  6.8580029575512547e-01  2.4173849813229978e+01  3.4621366954861981e+00  5.0183210655529820e-01  3.1296617845293273e-01  8.9730076980518838e+00  1.0102616235890476e+01  1.4894921916160660e+01  3.0557573467153514e+01  1.2663590620186278e+01  4.3505498225872075e-01  1.1281114093274383e+00  2.1289723734342476e+00  1.0558329239288937e+00  2.0330927942281867e+00  8.0943344766511007e+00  3.9613856202088145e+00  5.1453787069812218e-01  4.0892883240530759e-01  4.2021695326157023e+00  4.9481527364561190e-01  2.2898458536020229e+01  4.6062373861895665e+01  3.3536556557210041e+01  3.1616452795851178e+01  1.0867382858031367e+00  6.9016585783340034e-01  1.5472454404610174e+00  1.9510124419482004e+00  5.3740113062983441e-01  2.4045156992633515e+01  4.8724971736443905e+00  1.3609670771245538e+01  1.0023866210384174e+01  4.8068826588092811e-01  1.5160604947129098e+01  2.4444282257374979e+01  1.7417612460022349e+00  1.2290854532942495e+00  1.4992467765830328e+00  3.2948463136135601e+01  5.3868382853702634e+00  2.7701229745462634e+00  9.6390194069187736e+00  2.5190433596683492e-01  3.4454450885149711e+01  6.1173833412636136e-01  8.8302063758111842e+01  9.3107248016885276e+00  2.1948547134022110e+01  1.4366289959242748e-01  9.4214275976511186e-01  2.9695833062729537e+00  4.5926938203411872e+01  2.1932671174995098e+00  6.9364990630213423e+00  1.2013999045772147e+01  4.0049436152210651e+00  4.0182946179807351e+00  5.4227506204950853e+00  2.3975417496104283e+00  1.2299386900118807e+00  6.4969930828904197e+01  1.0924577617207958e+00  1.0102823605369708e+00  5.9725330904956458e+01  3.0251851864299415e+01  6.0832449218382667e+00  8.5915023295593738e+00  4.6611001236634203e-01  4.9014786609313873e+01  8.2882837189500602e+00  5.9288124416936071e+01  1.2487773184231884e+01  1.8797836800088424e-01  3.7726528391683125e+01  1.7447599052746977e+01  1.9743851293839896e+01  3.3270758097610532e+01  8.2165072973575004e