<?xml version="1.0"?>
<VTKFile type="UnstructuredGrid"  version="0.1"  >
<UnstructuredGrid>
<Piece  NumberOfPoints="329" NumberOfCells="591">
<Points>
<DataArray  type="Float64"  NumberOfComponents="3"  format="ascii">1 1 0  1 0 0  0 1 0  0.1 0 0  0 0.05 0  0 0.06287972744922905 0  0 0.07733101854263141 0  0 0.09354562955276843 0  0 0.1117387274652257 0  0 0.1321517167102699 0  0 0.1550554677812034 0  0 0.180753905378528 0  0 0.2095880154156652 0  0 0.2419404228079236 0  0 0.2782404219191014 0  0 0.3189696925575852 0  0 0.3646686840521894 0  0 0.4159437958321469 0  0 0.4734754197645336 0  0 0.5380269601229928 0  0 0.6104549840397083 0  0 0.6917205548749794 0  0 0.7829020268940308 0  0 0.8852093269103184 0  0.1249999999997738 1 0  0.2499999999994121 1 0  0.3749999999990476 1 0  0.499999999998694 1 0  0.6249999999990125 1 0  0.7499999999993416 1 0  0.8749999999996708 1 0  1 0.8749999999995011 0  1 0.7500000000003465 0  1 0.6250000000012137 0  1 0.5000000000020591 0  1 0.3750000000015605 0  1 0.2500000000010404 0  1 0.1250000000005203 0  0.8858668140054682 0 0  0.7847599782501582 0 0  0.6951928016501391 0 0  0.6158482189767517 0 0  0.5455594849979394 0 0  0.4832930359912455 0 0  0.4281332431078808 0 0  0.3792690195489327 0 0  0.3359818290399309 0 0  0.2976351453138421 0 0  0.2636650942991751 0 0  0.2335721510676335 0 0  0.2069138097881728 0 0  0.1832980729496208 0 0  0.1623776760112797 0 0  0.14384499012821 0 0  0.1274275009568929 0 0  0.1128837925540829 0 0  0.01095962714461596 0.04728118197092032 0  0.02177294498927405 0.04402886651664575 0  0.03241400047231467 0.04025085952476312 0  0.04285725397921011 0.03595622859598258 0  0.05307764064029129 0.03115528128095813 0  0.06305063048901315 0.02585954034109658 0  0.07275228733624464 0.02008171609282103 0  0.08215932621961379 0.01383567590150353 0  0.09124916928989955 0.00713641089829703 0  0.1414236082261961 0.1438023737016174 0  0.4817742768834378 0.4901278758291957 0  0.3624091025246281 0.2339594182574495 0  0.07268587903865573 0.1015981552344595 0  0.1201021155815482 0.05720118177218123 0  0.2420737366629467 0.4479847459292993 0  0.1682063636665927 0.2905455584298346 0  0.2486186226834043 0.1124338410220864 0  0.6163398171148563 0.259764042775916 0  0.2781804173130777 0.7216382284691502 0  0.09333431894645779 0.2257642191117944 0  0.6984245865386705 0.6984245865384632 0  0.341961414749992 0.1075994939682733 0  0.1694873839370323 0.05379458722869483 0  0.04364320191288235 0.0809120011483857 0  0.07644875726549999 0.06312950575057705 0  0.2180228772244665 0.2136433428137418 0  0.7114964573617789 0.468968133373519 0  0.5121857762971492 0.1585094687444923 0  0.063531486632888 0.1680380890257262 0  0.2717537023307885 0.306951180023368 0  0.1516048886082384 0.5742409720813505 0  0.09077154581711219 0.3899183526775666 0  0.4873712151981636 0.6931720185993807 0  0.09278401656915278 0.04004421275687188 0  0.4149590988341725 0.3680107782995087 0  0.7930770500119761 0.1799141184756466 0  0.07087994244077125 0.3063122898960334 0  0.3461990910081735 0.5600322692911036 0  0.03748895320269671 0.1148104878861113 0  0.2169086186584638 0.04757461598407452 0  0.2756150862433384 0.05574436910765968 0  0.4755759862676294 0.2644463526714684 0  0.145172278040319 0.09626894718364744 0  0.6341194774029034 0.1298479085747921 0  0.1368472256682334 0.02741275953172339 0  0.1084186408482724 0.02282530665554472 0  0.2949051577256208 0.1816556271870005 0  0.1039434838972989 0.08483138813024212 0  0.1490789473820267 0.8415842555519631 0  0.1961290065432183 0.09736743861710304 0  0.04502820928744796 0.05711461903344384 0  0.02328436100033807 0.06420544797413254 0  0.1547058967723819 0.2080411826446829 0  0.4411470119882192 0.09074077604960928 0  0.4177432614506957 0.1717030742484984 0  0.09575963926458665 0.4855854196039729 0  0.5585025007533995 0.3771675848208593 0  0.6026357534324536 0.5778670353167434 0  0.1933852222860492 0.1587701692281871 0  0.399129809652659 0.8281924141968294 0  0.5895172805431932 0.8316349685836363 0  0.8273521831845945 0.5820564238724116 0  0.8220715020704178 0.8245826797165611 0  0.1313281334244039 0.7046354775467695 0  0.8358506856818038 0.3608940839557382 0  0.09494240533679599 0.1348083667738246 0  0.06900796203942344 0.04579660127763759 0  0.04607492348775244 0.2083493856827786 0  0.1872244047247262 0.3758737753476276 0  0.3530628099881242 0.4760159558638177 0  0.1062571438171132 0.1849097269599367 0  0.03034770722945637 0.1513883357843671 0  0.2813916017124971 0.2502438987946499 0  0.3373239518072163 0.06086645997118829 0  0.01877314195663025 0.08605173244165149 0  0.7469053164039418 0.08150632294804246 0  0.05150292485312725 0.2655600654568913 0  0.06888943060833565 0.1415764905933624 0  0.1641362818907874 0.03014523345645643 0  0.3040052710637254 0.1122680926883269 0  0.1959828877549756 0.03001102354285314 0  0.2483890954351941 0.5570567756171005 0  0.5379278946297186 0.06790087513882785 0  0.2138321563228582 0.2821103505661405 0  0.71108372580164 0.3429127841257656 0  0.4049887747833427 0.0629636811476159 0  0.1412559172878682 0.05697066926279717 0  0.1213271056110565 0.1187120669314421 0  0.1498738401090223 0.4489557399551674 0  0.05704711703845864 0.3543728334179565 0  0.4516367697061881 0.5882798571162441 0  0.3498553664648259 0.3303358352123951 0  0.05900279122856872 0.07263497634316685 0  0.2502095602033647 0.1604393044132172 0  0.3131451783080064 0.3816628455499628 0  0.09814773003976245 0.05961615237458655 0  0.03152967256439272 0.0541082211510792 0  0.2760951606366254 0.8319190330533965 0  0.3570560746665467 0.1729072751577733 0  0.0380137563090058 0.1779584748309167 0  0.1336472668920574 0.2490495420021786 0  0.2124494813823772 0.6518353981532955 0  0.3784461338738937 0.6755874099655783 0  0.5652669022700264 0.4754041545693306 0  0.2486186226834043 0.02930858988788858 0  0.1700466279472565 0.1225318243315775 0  0.6984833211527072 0.2057899206666143 0  0.07829512028329129 0.5652908934853367 0  0.05323771314340691 0.4425592876034781 0  0.08500018631019478 0.02763176806080276 0  0.05330695578308499 0.04492264517840578 0  0.1084542846109734 0.342856735687323 0  0.7168051268361619 0.5729733889044812 0  0.8445827381937745 0.09194151623262946 0  0.6971305302784352 0.8926440191874504 0  0.8807333688527768 0.6972989797436387 0  0.5354536439725882 0.2289095495488153 0  0.0508357474723504 0.1000165502471106 0  0.8697398444229105 0.4746385439951171 0  0.2503378451432343 0.07776847304234821 0  0.1882244615279732 0.2403632858660698 0  0.02062159408084064 0.1100246861778571 0  0.1180469536080852 0.01245953890486963 0  0.06884753516447091 0.6541056651692166 0  0.6023115141373803 0.6827381625981285 0  0.127699075925267 0.0770947884988475 0  0.2430321846571018 0.385589478816338 0  0.1961592298124334 0.06892401223688115 0  0.402208520752956 0.2917630115639467 0  0.07558433324232315 0.082808243105159 0  0.2800134564173463 0.02290103630969939 0  0.07235745991014282 0.03234302487648833 0  0.09308261593598123 0.01914048023499861 0  0.593913488927329 0.06486788715697001 0  0.02069078143455648 0.1282563461598033 0  0.1722364718341907 0.08471819928200337 0  0.4818419130722847 0.3359669793644506 0  0.1356362455425514 0.01312580683935603 0  0.02876168261747034 0.2934586362831466 0  0.1900829022079782 0.5038764387809723 0  0.1039468620393869 0.01026028944895166 0  0.0591964511436588 0.05789257875908176 0  0.4094217345742713 0.5130463591341015 0  0.09653921695285628 0.1085693634556622 0  0.88827947191331 0.2865785712127037 0  0.07490321114459303 0.1969188020372516 0  0.6463888293687604 0.408022638254684 0  0.08862945679075419 0.2637444270539504 0  0.01153514212848912 0.05905646341990604 0  0.1096121399511713 0.03961650176327489 0  0.2068527449244062 0.3305256157765593 0  0.468122962354013 0.8977043072560462 0  0.2171030716412511 0.1289457366432923 0  0.5601194189081848 0.1183700548720741 0  0.4206507345782016 0.4453601947347229 0  0.4687603407755673 0.2002875251897743 0  0.1628423195390683 0.1704019771051777 0  0.2161836718869245 0.01984875640922074 0  0.5454908955823303 0.2990406213498741 0  0.6635015640089401 0.06999444687516854 0  0.0914820509982323 0.7776544117494042 0  0.3975707983793069 0.1166773386591882 0  0.04102721841729009 0.0464705146967349 0  0.3134113994667133 0.03479746878754319 0  0.2803101148901679 0.135501585589073 0  0.152223208316842 0.01743015126303164 0  0.4495728758264222 0.04600471546232188 0  0.08217136125538556 0.04929551605180845 0  0.2590469762902122 0.2038576108468041 0  0.4883984406226327 0.7908390497456591 0  0.01292315447352485 0.07314194310881816 0  0.02300949882112143 0.2257642191117944 0  0.1969829204692669 0.7574323953913307 0  0.2962821212605092 0.6356758734707194 0  0.04515029196788518 0.5057511899437631 0  0.03019699249279936 0.0952039059498514 0  0.3167321314298267 0.1455019562447321 0  0.7688843802474761 0.2752375551860122 0  0.03845940089290059 0.3925822047810962 0  0.45407863925757 0.1404052962455743 0  0.2809453300530503 0.4950735262781997 0  0.08475340229006161 0.9143124139227324 0  0.5263440395836503 0.551852267299189 0  0.4132394418969193 0.2235454872139094 0  0.5955052295375269 0.184580595035479 0  0.2767925964909495 0.09396097999012144 0  0.9092772142909843 0.1679992060290545 0  0.3513894777549163 0.7580224001297773 0  0.03571244021146038 0.06713950498249974 0  0.01605799665553939 0.1673217894029748 0  0.2048633878908532 0.9164683423406427 0  0.1222963227147425 0.2110564835545875 0  0.3613476250991887 0.03405167947958506 0  0.8993534378260273 0.8993534378259941 0  0.774206044813465 0.7340023619430565 0  0.06217550857912826 0.03624998768616253 0  0.06290905567396768 0.2310168530757435 0  0.1895455714563321 0.1953078096931506 0  0.6768789913940569 0.7789079162712138 0  0.1758996931635625 0.01803404032989985 0  0.1220472628441639 0.02680604319226458 0  0.1554067849725031 0.3368031546426042 0  0.02108709404077613 0.05448987125799451 0  0.3144418964804662 0.2225814608618223 0  0.3225712132242695 0.2712350319177189 0  0.920251196073848
[...]
<PointData  Scalars="f_2788"> 
<DataArray  type="Float64"  Name="f_2788"  format="ascii">1.3504078040085417e+02  0.0000000000000000e+00  0.0000000000000000e+00  0.0000000000000000e+00  0.0000000000000000e+00  0.0000000000000000e+00  0.0000000000000000e+00  0.0000000000000000e+00  0.0000000000000000e+00  0.0000000000000000e+00  0.0000000000000000e+00  0.0000000000000000e+00  0.0000000000000000e+00  0.0000000000000000e+00  0.0000000000000000e+00  0.0000000000000000e+00  0.0000000000000000e+00  0.0000000000000000e+00  0.0000000000000000e+00  0.0000000000000000e+00  0.0000000000000000e+00  0.0000000000000000e+00  0.0000000000000000e+00  0.0000000000000000e+00  3.1112103094892099e+01  5.1869777091509548e+01  6.8735514292417975e+01  8.3535616251717869e+01  9.7070525863653899e+01  1.0994765958105576e+02  1.2253694322013664e+02  1.2253672660471659e+02  1.0994318516649660e+02  9.7061712476282551e+01  8.3487290121422788e+01  6.8717827680752336e+01  5.1822177461311547e+01  3.1365463205015324e+01  0.0000000000000000e+00  0.0000000000000000e+00  0.0000000000000000e+00  0.0000000000000000e+00  0.0000000000000000e+00  0.0000000000000000e+00  0.0000000000000000e+00  0.0000000000000000e+00  0.0000000000000000e+00  0.0000000000000000e+00  0.0000000000000000e+00  0.0000000000000000e+00  0.0000000000000000e+00  0.0000000000000000e+00  0.0000000000000000e+00  0.0000000000000000e+00  0.0000000000000000e+00  0.0000000000000000e+00  2.2543724993366893e-01  4.0823804836038219e-01  5.5293469742869306e-01  6.6007863214501783e-01  7.2360801502233452e-01  7.3927578776911695e-01  6.9474986298421049e-01  5.8663792812663795e-01  3.8288485209332579e-01  3.4363594964102639e+00  3.8618261419212196e+01  1.4130850995743746e+01  1.3361200001108258e+00  1.2563540656479175e+00  1.8114039693166319e+01  8.1528426165330679e+00  4.6792296972393119e+00  2.7181913884245510e+01  3.4696772195296184e+01  3.5298394773635162e+00  7.5518646035999652e+01  6.1373989551074466e+00  1.5624465404708874e+00  7.2672323835081354e-01  1.0084165047024303e+00  7.7788523050788161e+00  5.4418678014615679e+01  1.3717345261055694e+01  1.8119980482103570e+00  1.3872362105177761e+01  1.4874123911718327e+01  5.9550795250333568e+00  5.4753384839278404e+01  8.3839070673061222e-01  2.5250768706752297e+01  2.6217199725046200e+01  3.6337312758205349e+00  3.2141842305873141e+01  7.7839319863697520e-01  1.7466772774898571e+00  2.5739291043437560e+00  2.0999755967909056e+01  2.3942326082989434e+00  1.4289120993834892e+01  6.8620671425124757e-01  5.4971340183752959e-01  8.9375246059347937e+00  1.5824487380114318e+00  2.4250165966690080e+01  3.2210150990403399e+00  6.7104244001450497e-01  3.8886678075159742e-01  5.3877995772077121e+00  6.7572025100747544e+00  1.2017465186687202e+01  7.8676350817544547e+00  3.4786040735521993e+01  5.5697121763803374e+01  5.1445471705374270e+00  5.6180057691894127e+01  7.7156366381545780e+01  7.5971638399144965e+01  9.9809720031872033e+01  1.6458684109180844e+01  5.2311564222698593e+01  2.2011076507906124e+00  8.2027783620024297e-01  1.6125643861722700e+00  1.1759944009428546e+01  2.7809818783456105e+01  3.3125263349659670e+00  7.8920974005057620e-01  1.1740661101606964e+01  3.4349673357072206e+00  3.3407262319528463e-01  1.1161684286324233e+01  2.2826088581472219e+00  1.6774072602239720e+00  8.5996527341648277e-01  5.7034687932420525e+00  9.9792872801217680e-01  2.3302503043110740e+01  6.2745631662077681e+00  1.0044157142241710e+01  4.1237652652855409e+01  4.2899138488484150e+00  1.4192313366236478e+00  2.4735278720531855e+00  1.1304482682201613e+01  3.3988472320550467e+00  4.3411448591403364e+01  1.9178890580787154e+01  8.9606869587864757e-01  6.7011081478310057e+00  1.9820496364117616e+01  1.1412141551556709e+00  5.0894235879929228e-01  4.1477574376145398e+01  1.0317234114275568e+01  1.1480250371193925e+00  5.5671889625034945e+00  2.3838727667766236e+01  4.2608710385680439e+01  4.3744188126955493e+01  1.2236410279022683e+00  3.5170462770994675e+00  2.5127096464704739e+01  7.5831192999783488e+00  3.9791060066778119e+00  6.9443234839002455e-01  7.2505118879006947e-01  6.2207409780839695e+00  6.5150488922578432e+01  1.5358609087506013e+01  9.3967295994570122e+01  9.2826444103996522e+01  2.0644298654598426e+01  9.4538865675766293e-01  6.8279546154705116e+01  3.2699277981142809e+00  7.5540110304243324e+00  4.2033991625119649e-01  3.0722904208693264e-01  7.9191949201462810e+00  6.4945482454674632e+01  1.7335956905775411e+00  1.5628747908624639e+01  2.2903896254670144e+00  1.9488334381137701e+01  1.1872937266358439e+00  1.0745495289780040e+00  7.5413680770855784e-01  5.4937055796077805e-01  6.6606064970295922e+00  4.6697434588108910e-01  2.4849793195542151e+00  2.6813717775521102e+01  3.3182164030607536e-01  1.4150339880861185e+00  1.6116077897082594e+01  2.8897381440382608e-01  8.1495011516738858e-01  3.4541397093627999e+01  1.8363806141454637e+00  4.6977319957249030e+01  2.4849500608558959e+00  4.3512053526401466e+01  3.9143886619119899e+00  2.0431165736343918e-01  8.7485287375388954e-01  1.1388841405525824e+01  7.0143697834037312e+01  4.6908765016626832e+00  1.1346724085069626e+01  3.0853898224469315e+01  1.5755279870585662e+01  4.6626463867057168e+00  7.2421171791235428e-01  2.7257052750422670e+01  8.2061607901331897e+00  1.3326043449363226e+01  7.7970893507140158e+00  6.2511871994601276e-01  1.8336169155580411e+00  6.3443173467532539e+00  4.7178471950254980e-01  3.4892253836606999e+00  9.1270621658608531e-01  8.8058041221572072e+00  6.2901667554941582e+01  2.2258415203345930e-01  8.6201048762125554e-01  2.6761355964375365e+01  3.1790462635876668e+01  3.8759554071346782e+00  5.5771235340928160e-01  7.7038237862203571e+00  3.7229787913158617e+01  2.5323110754217115e+00  1.0728681549381310e+01  2.3182920561490285e+01  1.7001641667412883e+01  4.7032867130750020e+01  1.5397261841818949e+01  1.8769244758214160e+01  4.3550836929934036e+00  3.1185942833585258e+01  4.5356706799733281e+01  5.7017183498487756e-01  4.5803222339122740e-01  3.7588042247530808e+01  4.3257202495273006e+00  2.0523266881158460e+00  1.1492025532555249e+02  8.6204198880213184e+01  7.5390689569008340e-01  2.4395856674813445e+00  6.1956251265270810e+00  8.1008225358391783e+01  5.4417256237120970e-01  6.4046091744786815e-01  8.7525989064277567e+00  3.6516159402222281e-01  1.1676267906458149e+01  1.4568825118638827e+01  8.3332677386031790e+01  6.3796105389705460e+01  1.2464930207234590e+00  3.0247297442840346e+00  2.4838639044034725e+00  5.4672634673382262e+01  3.3250604138382208e+01  7.9807060585514122e+00  4.0246222576075388e+00  5.2448111394719689e+01  3.1470529135528218e+00  3.9882510509460229e+00  3.4034697461126257e+01  1.2599950160863342e+00  1.0580333944067919e+00  1.5431924868611011e+01  2.9550856403919430e+00  3.3048632425058760e-01  1.0758542279317876e+02  1.0823712590674812e+02  7.7550322082767309e+00  1.6700778244566905e+00  6.9201385633841528e-01  5.3438290315636714e+01  1.5529543687876446e+01  5.3791309913375216e+01  7.7721212369478835e+01  1.9545061310074057e+00  5.9246067780203395e+00  1.7287650595895581e+00  1.0320870837297809e+00  9.7692061652562723e-01  9.9296231591215978e-01  4.7449080874569660e-01  3.2617920401751753e+01  6.6013355151840996e+00  1.4262723008519596e+00  8.4499633320922868e+01  2.1283696771371453e+01  1.7595693491798181e+00  9.8225266466583729e+00  6.2340436178804692e-01  2.4910550296358259e+01  6.3466524950434952e+01  1.5653028162169222e-01  9.3432017666779288e+00  2.0046488367099009e+00  7.8966476736749289e+00  8.0766814422012745e-01  6.5521453706155768e+01  1.5897463487520676e+00  7.3147863997407792e-01  3.4800852388883539e+00  6.7439306369737494e+01  5.2343874934191348e+01  2.4781927603309842e-01  8.1203470104671660e-01  4.1675563724248310e-01  1.3839982221948414e+01  4.6623066023222313e+00  1.8542273725194203e+00  1.1121806091082560e+00  1.4823588657421864e+00  1.3268707596443732e+00  1.1938955535678003e+01  2.2596796034204223e+00  1.7248053835568488e+01  9.8956333983098386e+00  </DataArray> 
</PointData> 
</Piece>
</UnstructuredGrid>
</VTKFile>