<?xml version="1.0"?>
<VTKFile type="UnstructuredGrid"  version="0.1"  >
<UnstructuredGrid>
<Piece  NumberOfPoints="38" NumberOfCells="57">
<Points>
<DataArray  type="Float64"  NumberOfComponents="3"  format="ascii">1 1 0  1 0 0  0 1 0  0.1 0 0  0 0.05 0  0 0.1117387356134963 0  0 0.2095880160159683 0  0 0.3646686921412792 0  0 0.6104550025356819 0  0.499999999998694 1 0  1 0.5000000000020591 0  0.6309573702880723 0 0  0.3981071819329088 0 0  0.2511886468442416 0 0  0.1584893283989431 0 0  0.03591831109452835 0.03887623481505334 0  0.06955000119512331 0.02206038976477742 0  0.145888909691243 0.1531380740262533 0  0.5007212322921321 0.4290276905436936 0  0.1292446641994716 0.07241175785429241 0  0.3415441058002951 0.1548112277039522 0  0.2725259489920414 0.4061351380869196 0  0.08314267413432988 0.1054906810998358 0  0.2976916520664192 0.6731224851015405 0  0.1120223290640808 0.2871283540786238 0  0.5099218320920952 0.1915665258824326 0  0.2014436694633252 0.07403664331536647 0  0.7516418333443547 0.2942991411178915 0  0.03841805297177547 0.08791547038497372 0  0.06324532764357151 0.1591665552031919 0  0.7048962566350579 0.6918345728827395 0  0.124446901318935 0.4777353611396686 0  0.1053292746835405 0.03534625485743612 0  0.07022339587708784 0.06062652729075715 0  0.2397236529536737 0.2462546623819807 0  0.3728873544260475 0.2855590489197958 0  0.288531633683202 0.07651425657199185 0  0.2434263943183478 0.1409509727999089 0  </DataArray>
</Points>
<Cells>
<DataArray  type="UInt32"  Name="connectivity"  format="ascii">2 8 23  3 14 32  2 9 23  1 10 27  6 24 29  18 27 30  17 24 29  18 25 27  6 7 24  1 11 27  14 19 32  12 13 36  4 5 28  5 6 29  12 20 36  7 8 31  11 25 27  11 12 25  5 28 29  18 21 23  18 25 35  18 23 30  17 22 29  18 21 35  12 20 25  13 14 26  21 23 31  14 19 26  17 19 22  8 23 31  7 24 31  22 28 29  17 19 26  10 27 30  4 15 28  9 23 30  3 16 32  15 16 33  0 9 30  0 10 30  21 24 31  20 25 35  19 22 33  19 32 33  17 24 34  15 28 33  16 32 33  17 26 37  13 26 36  20 34 35  17 34 37  21 24 34  21 34 35  20 34 37  26 36 37  22 28 33  20 36 37  </DataArray>
<DataArray  type="UInt32"  Name="offsets"  format="ascii">3 6 9 12 15 18 21 24 27 30 33 36 39 42 45 48 51 54 57 60 63 66 69 72 75 78 81 84 87 90 93 96 99 102 105 108 111 114 117 120 123 126 129 132 135 138 141 144 147 150 153 156 159 162 165 168 171 </DataArray>
<DataArray  type="UInt8"  Name="types"  format="ascii">5 5 5 5 5 5 5 5 5 5 5 5 5 5 5 5 5 5 5 5 5 5 5 5 5 5 5 5 5 5 5 5 5 5 5 5 5 5 5 5 5 5 5 5 5 5 5 5 5 5 5 5 5 5 5 5 5 </DataArray>
</Cells>
<PointData  Scalars="f_966"> 
<DataArray  type="Float64"  Name="f_966"  format="ascii">1.0671969278336350e+02  0.0000000000000000e+00  0.0000000000000000e+00  0.0000000000000000e+00  0.0000000000000000e+00  0.0000000000000000e+00  0.0000000000000000e+00  0.0000000000000000e+00  0.0000000000000000e+00  6.4213676409508579e+01  6.4957955272043293e+01  0.0000000000000000e+00  0.0000000000000000e+00  0.0000000000000000e+00  0.0000000000000000e+00  3.4107898963976196e-01  4.0820607375837231e-01  2.4240508725111680e+00  2.3677987375786891e+01  1.0532089933907707e+00  5.8713678847042079e+00  1.1831221690998490e+01  9.7946830991004774e-01  2.3224689151170413e+01  3.3764198107514138e+00  1.0835023685064776e+01  1.6436160878755541e+00  2.6354838328909317e+01  4.0702067428781563e-01  1.0565049108163445e+00  5.4515833603931135e+01  6.4492968938196027e+00  4.7225473031656284e-01  5.5988665474215982e-01  6.3764292570588044e+00  1.1551794491671814e+01  2.4190750699370853e+00  3.7312471070341484e+00  </DataArray> 
</PointData> 
</Piece>
</UnstructuredGrid>
</VTKFile>