<?xml version="1.0"?>
<VTKFile type="UnstructuredGrid"  version="0.1"  >
<UnstructuredGrid>
<Piece  NumberOfPoints="329" NumberOfCells="591">
<Points>
<DataArray  type="Float64"  NumberOfComponents="3"  format="ascii">1 1 0  1 0 0  0 1 0  0.1 0 0  0 0.05 0  0 0.06287972744922905 0  0 0.07733101854263141 0  0 0.09354562955276843 0  0 0.1117387274652257 0  0 0.1321517167102699 0  0 0.1550554677812034 0  0 0.180753905378528 0  0 0.2095880154156652 0  0 0.2419404228079236 0  0 0.2782404219191014 0  0 0.3189696925575852 0  0 0.3646686840521894 0  0 0.4159437958321469 0  0 0.4734754197645336 0  0 0.5380269601229928 0  0 0.6104549840397083 0  0 0.6917205548749794 0  0 0.7829020268940308 0  0 0.8852093269103184 0  0.1249999999997738 1 0  0.2499999999994121 1 0  0.3749999999990476 1 0  0.499999999998694 1 0  0.6249999999990125 1 0  0.7499999999993416 1 0  0.8749999999996708 1 0  1 0.8749999999995011 0  1 0.7500000000003465 0  1 0.6250000000012137 0  1 0.5000000000020591 0  1 0.3750000000015605 0  1 0.2500000000010404 0  1 0.1250000000005203 0  0.8858668140054682 0 0  0.7847599782501582 0 0  0.6951928016501391 0 0  0.6158482189767517 0 0  0.5455594849979394 0 0  0.4832930359912455 0 0  0.4281332431078808 0 0  0.3792690195489327 0 0  0.3359818290399309 0 0  0.2976351453138421 0 0  0.2636650942991751 0 0  0.2335721510676335 0 0  0.2069138097881728 0 0  0.1832980729496208 0 0  0.1623776760112797 0 0  0.14384499012821 0 0  0.1274275009568929 0 0  0.1128837925540829 0 0  0.01095962714461596 0.04728118197092032 0  0.02177294498927405 0.04402886651664575 0  0.03241400047231467 0.04025085952476312 0  0.04285725397921011 0.03595622859598258 0  0.05307764064029129 0.03115528128095813 0  0.06305063048901315 0.02585954034109658 0  0.07275228733624464 0.02008171609282103 0  0.08215932621961379 0.01383567590150353 0  0.09124916928989955 0.00713641089829703 0  0.1414236082261961 0.1438023737016174 0  0.4817742768834378 0.4901278758291957 0  0.3624091025246281 0.2339594182574495 0  0.07268587903865573 0.1015981552344595 0  0.1201021155815482 0.05720118177218123 0  0.2420737366629467 0.4479847459292993 0  0.1682063636665927 0.2905455584298346 0  0.2486186226834043 0.1124338410220864 0  0.6163398171148563 0.259764042775916 0  0.2781804173130777 0.7216382284691502 0  0.09333431894645779 0.2257642191117944 0  0.6984245865386705 0.6984245865384632 0  0.341961414749992 0.1075994939682733 0  0.1694873839370323 0.05379458722869483 0  0.04364320191288235 0.0809120011483857 0  0.07644875726549999 0.06312950575057705 0  0.2180228772244665 0.2136433428137418 0  0.7114964573617789 0.468968133373519 0  0.5121857762971492 0.1585094687444923 0  0.063531486632888 0.1680380890257262 0  0.2717537023307885 0.306951180023368 0  0.1516048886082384 0.5742409720813505 0  0.09077154581711219 0.3899183526775666 0  0.4873712151981636 0.6931720185993807 0  0.09278401656915278 0.04004421275687188 0  0.4149590988341725 0.3680107782995087 0  0.7930770500119761 0.1799141184756466 0  0.07087994244077125 0.3063122898960334 0  0.3461990910081735 0.5600322692911036 0  0.03748895320269671 0.1148104878861113 0  0.2169086186584638 0.04757461598407452 0  0.2756150862433384 0.05574436910765968 0  0.4755759862676294 0.2644463526714684 0  0.145172278040319 0.09626894718364744 0  0.6341194774029034 0.1298479085747921 0  0.1368472256682334 0.02741275953172339 0  0.1084186408482724 0.02282530665554472 0  0.2949051577256208 0.1816556271870005 0  0.1039434838972989 0.08483138813024212 0  0.1490789473820267 0.8415842555519631 0  0.1961290065432183 0.09736743861710304 0  0.04502820928744796 0.05711461903344384 0  0.02328436100033807 0.06420544797413254 0  0.1547058967723819 0.2080411826446829 0  0.4411470119882192 0.09074077604960928 0  0.4177432614506957 0.1717030742484984 0  0.09575963926458665 0.4855854196039729 0  0.5585025007533995 0.3771675848208593 0  0.6026357534324536 0.5778670353167434 0  0.1933852222860492 0.1587701692281871 0  0.399129809652659 0.8281924141968294 0  0.5895172805431932 0.8316349685836363 0  0.8273521831845945 0.5820564238724116 0  0.8220715020704178 0.8245826797165611 0  0.1313281334244039 0.7046354775467695 0  0.8358506856818038 0.3608940839557382 0  0.09494240533679599 0.1348083667738246 0  0.06900796203942344 0.04579660127763759 0  0.04607492348775244 0.2083493856827786 0  0.1872244047247262 0.3758737753476276 0  0.3530628099881242 0.4760159558638177 0  0.1062571438171132 0.1849097269599367 0  0.03034770722945637 0.1513883357843671 0  0.2813916017124971 0.2502438987946499 0  0.3373239518072163 0.06086645997118829 0  0.01877314195663025 0.08605173244165149 0  0.7469053164039418 0.08150632294804246 0  0.05150292485312725 0.2655600654568913 0  0.06888943060833565 0.1415764905933624 0  0.1641362818907874 0.03014523345645643 0  0.3040052710637254 0.1122680926883269 0  0.1959828877549756 0.03001102354285314 0  0.2483890954351941 0.5570567756171005 0  0.5379278946297186 0.06790087513882785 0  0.2138321563228582 0.2821103505661405 0  0.71108372580164 0.3429127841257656 0  0.4049887747833427 0.0629636811476159 0  0.1412559172878682 0.05697066926279717 0  0.1213271056110565 0.1187120669314421 0  0.1498738401090223 0.4489557399551674 0  0.05704711703845864 0.3543728334179565 0  0.4516367697061881 0.5882798571162441 0  0.3498553664648259 0.3303358352123951 0  0.05900279122856872 0.07263497634316685 0  0.2502095602033647 0.1604393044132172 0  0.3131451783080064 0.3816628455499628 0  0.09814773003976245 0.05961615237458655 0  0.03152967256439272 0.0541082211510792 0  0.2760951606366254 0.8319190330533965 0  0.3570560746665467 0.1729072751577733 0  0.0380137563090058 0.1779584748309167 0  0.1336472668920574 0.2490495420021786 0  0.2124494813823772 0.6518353981532955 0  0.3784461338738937 0.6755874099655783 0  0.5652669022700264 0.4754041545693306 0  0.2486186226834043 0.02930858988788858 0  0.1700466279472565 0.1225318243315775 0  0.6984833211527072 0.2057899206666143 0  0.07829512028329129 0.5652908934853367 0  0.05323771314340691 0.4425592876034781 0  0.08500018631019478 0.02763176806080276 0  0.05330695578308499 0.04492264517840578 0  0.1084542846109734 0.342856735687323 0  0.7168051268361619 0.5729733889044812 0  0.8445827381937745 0.09194151623262946 0  0.6971305302784352 0.8926440191874504 0  0.8807333688527768 0.6972989797436387 0  0.5354536439725882 0.2289095495488153 0  0.0508357474723504 0.1000165502471106 0  0.8697398444229105 0.4746385439951171 0  0.2503378451432343 0.07776847304234821 0  0.1882244615279732 0.2403632858660698 0  0.02062159408084064 0.1100246861778571 0  0.1180469536080852 0.01245953890486963 0  0.06884753516447091 0.6541056651692166 0  0.6023115141373803 0.6827381625981285 0  0.127699075925267 0.0770947884988475 0  0.2430321846571018 0.385589478816338 0  0.1961592298124334 0.06892401223688115 0  0.402208520752956 0.2917630115639467 0  0.07558433324232315 0.082808243105159 0  0.2800134564173463 0.02290103630969939 0  0.07235745991014282 0.03234302487648833 0  0.09308261593598123 0.01914048023499861 0  0.593913488927329 0.06486788715697001 0  0.02069078143455648 0.1282563461598033 0  0.1722364718341907 0.08471819928200337 0  0.4818419130722847 0.3359669793644506 0  0.1356362455425514 0.01312580683935603 0  0.02876168261747034 0.2934586362831466 0  0.1900829022079782 0.5038764387809723 0  0.1039468620393869 0.01026028944895166 0  0.0591964511436588 0.05789257875908176 0  0.4094217345742713 0.5130463591341015 0  0.09653921695285628 0.1085693634556622 0  0.88827947191331 0.2865785712127037 0  0.07490321114459303 0.1969188020372516 0  0.6463888293687604 0.408022638254684 0  0.08862945679075419 0.2637444270539504 0  0.01153514212848912 0.05905646341990604 0  0.1096121399511713 0.03961650176327489 0  0.2068527449244062 0.3305256157765593 0  0.468122962354013 0.8977043072560462 0  0.2171030716412511 0.1289457366432923 0  0.5601194189081848 0.1183700548720741 0  0.4206507345782016 0.4453601947347229 0  0.4687603407755673 0.2002875251897743 0  0.1628423195390683 0.1704019771051777 0  0.2161836718869245 0.01984875640922074 0  0.5454908955823303 0.2990406213498741 0  0.6635015640089401 0.06999444687516854 0  0.0914820509982323 0.7776544117494042 0  0.3975707983793069 0.1166773386591882 0  0.04102721841729009 0.0464705146967349 0  0.3134113994667133 0.03479746878754319 0  0.2803101148901679 0.135501585589073 0  0.152223208316842 0.01743015126303164 0  0.4495728758264222 0.04600471546232188 0  0.08217136125538556 0.04929551605180845 0  0.2590469762902122 0.2038576108468041 0  0.4883984406226327 0.7908390497456591 0  0.01292315447352485 0.07314194310881816 0  0.02300949882112143 0.2257642191117944 0  0.1969829204692669 0.7574323953913307 0  0.2962821212605092 0.6356758734707194 0  0.04515029196788518 0.5057511899437631 0  0.03019699249279936 0.0952039059498514 0  0.3167321314298267 0.1455019562447321 0  0.7688843802474761 0.2752375551860122 0  0.03845940089290059 0.3925822047810962 0  0.45407863925757 0.1404052962455743 0  0.2809453300530503 0.4950735262781997 0  0.08475340229006161 0.9143124139227324 0  0.5263440395836503 0.551852267299189 0  0.4132394418969193 0.2235454872139094 0  0.5955052295375269 0.184580595035479 0  0.2767925964909495 0.09396097999012144 0  0.9092772142909843 0.1679992060290545 0  0.3513894777549163 0.7580224001297773 0  0.03571244021146038 0.06713950498249974 0  0.01605799665553939 0.1673217894029748 0  0.2048633878908532 0.9164683423406427 0  0.1222963227147425 0.2110564835545875 0  0.3613476250991887 0.03405167947958506 0  0.8993534378260273 0.8993534378259941 0  0.774206044813465 0.7340023619430565 0  0.06217550857912826 0.03624998768616253 0  0.06290905567396768 0.2310168530757435 0  0.1895455714563321 0.1953078096931506 0  0.6768789913940569 0.7789079162712138 0  0.1758996931635625 0.01803404032989985 0  0.1220472628441639 0.02680604319226458 0  0.1554067849725031 0.3368031546426042 0  0.02108709404077613 0.05448987125799451 0  0.3144418964804662 0.2225814608618223 0  0.3225712132242695 0.2712350319177189 0  0.920251196073848
[...]
<PointData  Scalars="f_2788"> 
<DataArray  type="Float64"  Name="f_2788"  format="ascii">1.3504749705335496e+02  0.0000000000000000e+00  0.0000000000000000e+00  0.0000000000000000e+00  0.0000000000000000e+00  0.0000000000000000e+00  0.0000000000000000e+00  0.0000000000000000e+00  0.0000000000000000e+00  0.0000000000000000e+00  0.0000000000000000e+00  0.0000000000000000e+00  0.0000000000000000e+00  0.0000000000000000e+00  0.0000000000000000e+00  0.0000000000000000e+00  0.0000000000000000e+00  0.0000000000000000e+00  0.0000000000000000e+00  0.0000000000000000e+00  0.0000000000000000e+00  0.0000000000000000e+00  0.0000000000000000e+00  0.0000000000000000e+00  3.1113411426444650e+01  5.1872342041079214e+01  6.8739238044396927e+01  8.3540350126963020e+01  9.7076092238037930e+01  1.0995384356159113e+02  1.2254350771992486e+02  1.2254329227278255e+02  1.0994937310090674e+02  9.7067284438860014e+01  8.3492036401004384e+01  6.8721548910413688e+01  5.1824740162602929e+01  3.1366769891563226e+01  0.0000000000000000e+00  0.0000000000000000e+00  0.0000000000000000e+00  0.0000000000000000e+00  0.0000000000000000e+00  0.0000000000000000e+00  0.0000000000000000e+00  0.0000000000000000e+00  0.0000000000000000e+00  0.0000000000000000e+00  0.0000000000000000e+00  0.0000000000000000e+00  0.0000000000000000e+00  0.0000000000000000e+00  0.0000000000000000e+00  0.0000000000000000e+00  0.0000000000000000e+00  0.0000000000000000e+00  2.2545963315219869e-01  4.0827858143288720e-01  5.5298959250028956e-01  6.6014415467693499e-01  7.2367982750379911e-01  7.3934913304515959e-01  6.9481876782592300e-01  5.8669608648127192e-01  3.8292279431076054e-01  3.4366947655632671e+00  3.8621463640209384e+01  1.4132148678265679e+01  1.3362518366523288e+00  1.2564779408470823e+00  1.8115648593756909e+01  8.1536142186670553e+00  4.6796795095072250e+00  2.7184104998431014e+01  3.4699339234765631e+01  3.5301809560759319e+00  7.5523937576100010e+01  6.1379746207025843e+00  1.5625995859122530e+00  7.2679520589514857e-01  1.0085163238362385e+00  7.7795950725806069e+00  5.4422713555552008e+01  1.3718534579197488e+01  1.8121754238164351e+00  1.3873649395027059e+01  1.4875363647798945e+01  5.9556283963079846e+00  5.4757496578856816e+01  8.3847370576394553e-01  2.5252989088282327e+01  2.6218970512412380e+01  3.6340764445401366e+00  3.2144511993514755e+01  7.7847002493137996e-01  1.7468469405955851e+00  2.5741758016514087e+00  2.1001593846240585e+01  2.3944672874903747e+00  1.4290258484678194e+01  6.8627431371656744e-01  5.4976777330833992e-01  8.9383680848755915e+00  1.5826047233406402e+00  2.4251672924153542e+01  3.2213283009087625e+00  6.7110900835665699e-01  3.8890536439221429e-01  5.3883194587755288e+00  6.7578116426149597e+00  1.2018554654389153e+01  7.8683286893401387e+00  3.4788916290465437e+01  5.5701404251501692e+01  5.1450444877088755e+00  5.6183841233348026e+01  7.7161531447967889e+01  7.5976746257916801e+01  9.9815922797372764e+01  1.6459909304177728e+01  5.2315040943873150e+01  2.2013236444238116e+00  8.2035916524645336e-01  1.6127212909139430e+00  1.1761025595240472e+01  2.7812217044257601e+01  3.3128487924157413e+00  7.8928728726981634e-01  1.1741760541888766e+01  3.4352905861307104e+00  3.3410571317832205e-01  1.1162472032940334e+01  2.2828282432196820e+00  1.6775720423212910e+00  8.6004963651095223e-01  5.7040093801022493e+00  9.9802610834132233e-01  2.3304459106570015e+01  6.2750982447251911e+00  1.0045103642872817e+01  4.1240740494617043e+01  4.2903073831421050e+00  1.4193708864983763e+00  2.4737704713756767e+00  1.1305495513816931e+01  3.3991651351994618e+00  4.3414933599539850e+01  1.9180626289561410e+01  8.9615742703517765e-01  6.7017490619315820e+00  1.9822279380701023e+01  1.1413269382904863e+00  5.0899287502458990e-01  4.1480293117945294e+01  1.0318191686869438e+01  1.1481373603120684e+00  5.5677231625841301e+00  2.3840601936114773e+01  4.2611987549567473e+01  4.3747718417200495e+01  1.2237591783040696e+00  3.5173890493842030e+00  2.5128990638682428e+01  7.5837570983904063e+00  3.9794650699251362e+00  6.9450117794700639e-01  7.2512313343317347e-01  6.2213239360706094e+00  6.5155221026616502e+01  1.5359543831242133e+01  9.3973169800757915e+01  9.2832306869238238e+01  2.0646056206060514e+01  9.4548207134892759e-01  6.8283996800202800e+01  3.2702426960245905e+00  7.5547324298717804e+00  4.2038144115527587e-01  3.0725940014944458e-01  7.9198131895772477e+00  6.4950252979380011e+01  1.7337662371493678e+00  1.5630170794467094e+01  2.2906127603422930e+00  1.9490085332969571e+01  1.1874110628999364e+00  1.0746524758231586e+00  7.5421159937816407e-01  5.4942498770797565e-01  6.6611534901522234e+00  4.6702038999493717e-01  2.4852221478145347e+00  2.6816033190147667e+01  3.3185434346325426e-01  1.4151690243841264e+00  1.6117479573755123e+01  2.8900242131375697e-01  8.1503090381173571e-01  3.4544292473882749e+01  1.8365613491291877e+00  4.6980192391131126e+01  2.4851920267547354e+00  4.3515458838208573e+01  3.9147642717265843e+00  2.0433193766179272e-01  8.7493932886314263e-01  1.1389902144398006e+01  7.0148138496787638e+01  4.6913297790016761e+00  1.1347678998553883e+01  3.0856545369664758e+01  1.5756672680367243e+01  4.6630984941421918e+00  7.2428213469567670e-01  2.7259345066152388e+01  8.2067952852215438e+00  1.3326944615095634e+01  7.7978052401612068e+00  6.2518076704203784e-01  1.8337908847464703e+00  6.3449213611330322e+00  4.7183110002501538e-01  3.4895393397589927e+00  9.1279660422052888e-01  8.8066399044242871e+00  6.2906062950256732e+01  2.2260622745054992e-01  8.6209420846907459e-01  2.6763248161312216e+01  3.1792986240549663e+01  3.8762936474620067e+00  5.5776753266658685e-01  7.7045491322798227e+00  3.7232410666152113e+01  2.5325447223179491e+00  1.0729641066447639e+01  2.3184927133829930e+01  1.7002523929969346e+01  4.7036619922116273e+01  1.5398653427890002e+01  1.8770785816474749e+01  4.3555000657085161e+00  3.1187672603455432e+01  4.5359962434313445e+01  5.7022837956934980e-01  4.5807713523530247e-01  3.7590143462195172e+01  4.3261388088640915e+00  2.0525185579122045e+00  1.1492678592639660e+02  8.6209927815977522e+01  7.5398169191085362e-01  2.4398218181359193e+00  6.1962213476879917e+00  8.1013731309307417e+01  5.4422586683162677e-01  6.4052414040455008e-01  8.7534173710239571e+00  3.6519784335173650e-01  1.1677357698593763e+01  1.4570170649790947e+01  8.3337854050465538e+01  6.3800579564326114e+01  1.2466158741604785e+00  3.0250252653532694e+00  2.4841068178207206e+00  5.4675912551789480e+01  3.3253419982129564e+01  7.9812865805676729e+00  4.0250133811578355e+00  5.2451864934866727e+01  3.1473576800606042e+00  3.9886295990824241e+00  3.4037424672621093e+01  1.2601194876133022e+00  1.0581375394177182e+00  1.5433148489577672e+01  2.9553745879088003e+00  3.3051883421917011e-01  1.0759175046971322e+02  1.0824346614195430e+02  7.7557340322833541e+00  1.6702421744415614e+00  6.9208235721696887e-01  5.3442415274621204e+01  1.5530320770976134e+01  5.3795422352941998e+01  7.7726556938280794e+01  1.9546977944918074e+00  5.9251690234674435e+00  1.7289282552611072e+00  1.0321891271669643e+00  9.7701690061928004e-01  9.9305993627767952e-01  4.7453783931773397e-01  3.2620410492150135e+01  6.6019690900494696e+00  1.4264129215484265e+00  8.4504860369229149e+01  2.1285583413212233e+01  1.7597410516002983e+00  9.8234556350687718e+00  6.2346521887220741e-01  2.4912743897667323e+01  6.3470400072357492e+01  1.5654578812054634e-01  9.3440599893376728e+00  2.0048459035689317e+00  7.8973413831564914e+00  8.0774818373262314e-01  6.5526264466121560e+01  1.5899014609796829e+00  7.3155113705456853e-01  3.4803892017640776e+00  6.7444092389252560e+01  5.2347666098037664e+01  2.4784379530670664e-01  8.1211285213691953e-01  4.1679632115746929e-01  1.3841231255171715e+01  4.6627404053993775e+00  1.8543976024344508e+00  1.1122894139022004e+00  1.4825050748780331e+00  1.3270009863582972e+00  1.1939984422086813e+01  2.2598978147309721e+00  1.7249342662104311e+01  9.8962367812811500e+00  </DataArray> 
</PointData> 
</Piece>
</UnstructuredGrid>
</VTKFile>